lammps to VASP
1.0
 70.6528702403 0.0000000000 0.0000000000
 25.5250644271 36.7944596940 0.0000000000
 -0.3896671923 0.0418673143 78.6858830210
  Li   C   O   F
  9248   1764   5292   5720
Direct configuration=     1
  0.6550699025456485 0.48237739494413456 0.8570978352240687
  0.43226828125045236 0.8030027959877989 0.9469436846772995
  0.5057910409858706 0.6552838823587761 0.8785756395660342
  0.7851952319889257 0.46826180742305423 0.7753017143330867
  0.04819087033201741 0.9582821847252124 0.024476817518662125
  0.07229255770128565 0.897247149674006 0.006590241859032758
  0.07976805741042543 0.9683772094619064 0.044994475045222145
  0.028767538421796256 0.018334353175718927 0.051337925494481754
  0.9952510403595475 0.002646637829829819 0.06466598333326852
  0.04529093392765277 0.9589498003766675 0.0659278361102589
  0.07517786760219627 0.9810553419777722 0.08117936476984833
  0.019454937190072075 0.02592292315435852 0.08925934018081574
  0.04930875937322087 0.9521230998363459 0.10139124953163457
  0.10323478706866573 0.9075032920025657 0.10525395003559732
  0.02656220425591331 0.018178375596839595 0.12220730874218828
  0.07437846887919311 0.9847844166767458 0.11917347356318589
  0.9998134757546985 0.003361177241253843 0.13775914539976628
  0.05574830416839902 0.9502910486488703 0.1422186492717164
  0.022089753368517463 0.029867804801342556 0.16170753267905624
  0.07400828819130197 0.9817272175028617 0.15949112494104511
  0.05279504577711108 0.9547706935016355 0.17503393837904746
  0.9967143573914097 0.006705499945502735 0.17472003200789565
  0.02381101107510404 0.0190915564100329 0.19842441109584497
  0.07655206489513076 0.9729268771297743 0.1954086223559938
  0.9977534704557707 0.9959298722229487 0.2149280067872512
  0.05012840254902789 0.9571045711621844 0.21626496833563866
  0.027209280056393476 0.026165233357019344 0.23377128518833554
  0.0801087692813798 0.9791369270836572 0.231345182910891
  0.05283663808834161 0.9565386606875175 0.255015248346933
  0.10436793970235757 0.9105292972615603 0.24999147553250756
  0.07721559784683187 0.9813148801510698 0.2710753083155377
  0.024641591632207232 0.019716147617992417 0.27494004222109497
  0.004926790036919989 0.9978827701246353 0.29002661117633016
  0.054188384932632394 0.9539816610045126 0.29283524712874104
  0.027587505033929018 0.019916006988687028 0.31024879003368855
  0.07913009258737909 0.9770200346308078 0.3099247166545642
  0.005230353336840324 0.9971303740494106 0.32786058959410036
  0.05463046482691142 0.9588346420675846 0.3295508546695332
  0.03306137261535123 0.020660480569414538 0.3456820836939456
  0.08440860476069349 0.967284167022354 0.34876141623362505
  0.0072177821597861425 0.9967770391249737 0.3660948939507889
  0.05573302773265987 0.9467488271313329 0.36755258871885016
  0.026830510257994884 0.018238165254408613 0.3810505626783778
  0.08031578756068725 0.974082827996007 0.38332161808424126
  0.9718737176439316 0.9851351970019185 0.42473946681232766
  0.05552699134564384 0.9505677448297902 0.403021466907011
  0.391749719238512 0.494555294126681 0.5638088853645534
  0.8536017230048619 0.21392033950917524 0.5179861804323693
  0.8350780017070388 0.31351061870656527 0.7869187918176968
  0.10694932143569871 0.003928978120334576 0.6105567880222378
  0.12316401087915345 0.513207208833902 0.6978723233663058
  0.3018417097577823 0.7972780174610119 0.7138294423791887
  0.04180260033625134 0.30921400987674186 0.7031159577281372
  0.5191832788228828 0.4243454446222642 0.8775017493489359
  0.9995627234517875 0.311262042762399 0.9716723898184811
  0.37311255415241046 0.5270888016853581 0.006026926073554872
  0.19851915094609637 0.8019937398097037 0.9117772749763213
  0.9255852971040713 0.18443449805137793 0.9330021749949704
  0.19322044932607277 0.8105433323596025 0.9863548202068082
  0.024725341814516955 0.12428401965312877 0.046973356059475085
  0.006779072165027095 0.08519826839634749 0.06223822891702845
  0.04916707449560226 0.049476204469425904 0.0637678552664953
  0.08021304533175987 0.06394510461542771 0.08513623718515662
  0.02819096566978459 0.108404914512638 0.08454667781034965
  0.05024583021216204 0.044443863784038 0.10156002186397854
  0.0993608966620978 0.009002819742119694 0.10238100775776017
  0.021826263032658264 0.11205792522001116 0.1143896421369121
  0.06728588070562541 0.07358905670523576 0.11991261504278869
  0.9983788434636682 0.09189621581662373 0.1408829585993255
  0.05276240513197041 0.04382155395660894 0.1397175653104745
  0.028301600104047486 0.10410558380122802 0.15934370332544345
  0.0782874889947241 0.06506658647147018 0.15812112061674696
  0.05249953758267112 0.04393231378844694 0.17804464361491237
  0.9951606252747742 0.09437569578920878 0.18074398423161855
  0.03264249054564168 0.10737914425362878 0.19543658162791827
  0.07342926747729525 0.07007795312023583 0.19489137582539146
  0.0044547484213570245 0.08844674759887691 0.21710755912136195
  0.05280510004097293 0.03523149603713529 0.21248411224585478
  0.02843955962892566 0.10793921826211199 0.23084318689224745
  0.07723706634954022 0.06509014435747164 0.2317633011137612
  0.05363584745898001 0.04518913025014624 0.2510399482296745
  0.09869983662633232 0.0030359234879295816 0.25402015244162185
  0.08292735987490223 0.06114210931535839 0.2737009381244431
  0.024561166604333128 0.10515557290396388 0.2684077395987457
  0.00416572095806586 0.08691157171387685 0.29487627397922606
  0.050727533254258036 0.04613848659851916 0.2923357928620906
  0.027093420175492603 0.10613487447793261 0.3130040491942437
  0.08145986109981343 0.06626598414199827 0.31071774327642143
  0.003682108820477414 0.08830349988456027 0.3289065205392742
  0.05151527339277043 0.04186060007082726 0.3265515873176374
  0.03267194199611487 0.10295151467633319 0.3497870131628538
  0.07773979124249909 0.06571669103909397 0.3501504836978717
  0.9978221687169688 0.09169795694994105 0.36288974468744944
  0.05060184311259753 0.03620735193714701 0.36854641374816477
  0.030448490155338712 0.11604037241119618 0.3861531298045903
  0.07774189606825778 0.06914596980472335 0.3864924536956735
  0.9995961891732692 0.09098406755756062 0.3988885781661784
  0.05299889095484618 0.03743886480573078 0.40263384972805843
  0.024715143988276435 0.10546511030151141 0.41794536373468577
  0.010817783078599283 0.09916532821725911 0.47902112237765526
  0.7767777602891971 0.2582447450881574 0.6394997179680322
  0.0036480577827351967 0.3663802745361678 0.4427261747917265
  0.4078158729778677 0.9017336198464987 0.4418403742221199
  0.19081072879484112 0.9216847349016328 0.537607234943352
  0.49883007028541615 0.42924731245856773 0.6801741042381274
  0.33259600136204326 0.04544733213772211 0.7719618522141113
  0.5521141213849403 0.6829430592982307 0.02338653300120814
  0.04469987464037306 0.14560664276269883 0.03134310635290899
  0.9537762323632792 0.6445803592176671 0.743156176875946
  0.0037674754362803002 0.18539993979192013 0.026736562128156154
  0.07719710725827608 0.16032702441005303 0.045949030006242876
  0.022644458295538246 0.20924500582075867 0.05214251708790769
  0.9994993768313347 0.18410721033330804 0.06890028797862716
  0.05298669845289819 0.13377957967368326 0.07004623686473074
  0.0813765194092861 0.1526537846528142 0.08351320144994216
  0.02181930209358894 0.20739241849982373 0.09167095447189941
  0.09636306803694394 0.09323590247273152 0.10975971379382246
  0.07668505112228373 0.16181498465203178 0.12527838058789006
  0.05309284889666833 0.14039756625716207 0.1035988882252694
  0.059713629700522915 0.22443151463599292 0.14268124813446645
  0.9495911808342709 0.22241452440478932 0.1444503075216863
  0.04971411685863453 0.1319648252748665 0.13962097873473547
  0.019270343406559802 0.2071667177416773 0.12330750609241549
  0.0745682305294669 0.1603343296364466 0.16396969195294375
  0.050758868441365915 0.1377102798691214 0.17662126249875842
  0.006494782000209094 0.17174306762831665 0.18025088434495096
  0.027241920245454146 0.20364564141158722 0.19749667161835177
  0.07546336279447119 0.1562399275600568 0.19911195500998716
  0.00535254026242502 0.18272493901717063 0.22056815446001118
  0.053755269939606234 0.13828998268932427 0.21627386446761465
  0.034974181447620996 0.19978925408912063 0.239383473589171
  0.07595376161653375 0.1597526473941222 0.23473333831773596
  0.048894092096125184 0.13073214472939576 0.25440776962057443
  0.10682336247614269 0.08586908480539517 0.2566063850946336
  0.07839334069800288 0.15998782234588949 0.27550176941157717
  0.03168204726476151 0.19444925734419075 0.2764600099129879
  0.009202208386265702 0.16639775543859014 0.2857717183398271
  0.04846941861614295 0.12811791829151817 0.29140678250860086
  0.026799754696983962 0.20243677220354214 0.30759901358084846
  0.07689444624266828 0.14828774589454405 0.31295321415438104
  0.9989855004469658 0.18296955801115514 0.3270802717322088
  0.047028748025836495 0.13577404029250567 0.3319426432950704
  0.02551833156267086 0.20889846691550085 0.34881098039749114
  0.07549335285285165 0.1564919709313637 0.3473469312494471
  0.999682887642103 0.17224866338722142 0.36791224662587835
  0.04801973860323767 0.1427287222385745 0.36529170032095926
  0.03410915159979614 0.1975013899167433 0.38390495016666504
  0.0799558587155883 0.15086817159248747 0.38615185892859377
  0.0010143386925526262 0.1844780473859457 0.40747588727497497
  0.053224984330801944 0.13376951166396156 0.41017904051967086
  0.022156312676981312 0.20758664702200058 0.42112763723008706
  0.07061472875349706 0.16423665509944607 0.4218329734081812
  0.07629545099163507 0.06246990889792208 0.4214135843293144
  0.8003763810308134 0.1965657595312572 0.4774388817619306
  0.8730006009017628 0.4331061978818709 0.6016975114501761
  0.8774979192550797 0.7090805291910305 0.4577568252031127
  0.1748815411512493 0.5765409220687856 0.8500254103031788
  0.3489411973863512 0.05718102724883678 0.9930180230568038
  0.0007182843584743193 0.27380607189229317 0.9965014181778133
  0.025855417246981743 0.0039681533499074445 0.9295542884162867
  0.06170097162519105 0.05101288797618592 0.5390445956954681
  0.05492336390001387 0.2234169608923124 0.02588266054606345
  0.09909577226669407 0.18533453359034016 0.02354996765436653
  0.026959173022948046 0.2981511176611707 0.05232526905621388
  0.0036745386845145056 0.27011975607573796 0.06495574306048557
  0.05191635554644041 0.2223095627200469 0.07212678795870896
  0.08146572247797082 0.23694395230243898 0.08467935726439114
  0.028268887086164842 0.2875782276328503 0.08633213149792524
  0.047121943096708356 0.22732621849082799 0.10615957627075026
  0.1003540242435609 0.1780740789558631 0.108688111153518
  0.002781655309318473 0.35918201793622706 0.1431120750973023
  0.07847288318557896 0.25077759409111666 0.11689123444855265
  0.030128086301023035 0.19154745886863997 0.15894846089051143
  0.024980109090590286 0.2912473402115428 0.12208759222331177
  0.02367820761876029 0.28582443438172106 0.15870064007118106
  0.07511315375322244 0.25821583392449365 0.15663546657676125
  0.05146769599358453 0.22742541495090476 0.17853393087359026
  0.003148630853214992 0.266574439244147 0.14086262458338047
  0.02921242686446802 0.28985540618535544 0.196500304837044
  0.08166886547874705 0.24464842328762812 0.19402845102372313
  0.010955303988710592 0.264163919288957 0.21404093534164811
  0.05229968533201375 0.22890989524030525 0.21816746970249798
  0.02422082644836932 0.30494794679613485 0.23180524002164787
  0.07160685301965107 0.25944566181712664 0.2335247352450017
  0.05425522618898708 0.23480496266555026 0.2569609594976756
  0.10221018812344213 0.17729350704757005 0.2496267341214931
  0.08314111838091195 0.24720972094291896 0.2694676501798817
  0.03101929647085656 0.2919533777235666 0.2730820215141155
  0.007887650157226386 0.26164355315285853 0.2894102363179956
  0.05175574907407397 0.23027798670442215 0.29153768273624714
  0.028499828672265616 0.2928398783681797 0.3084721053904893
  0.08217351155600319 0.24697214220129066 0.30891564111329084
  0.0032967008990351663 0.2633502158865275 0.3267727197410399
  0.05249122403312117 0.23039295746789779 0.3304633436350676
  0.03127373161821972 0.28652547078864987 0.3451406905194085
  0.07759184531549476 0.2567244805728136 0.345411387106677
  0.003951190057203187 0.2702303676597095 0.36495364730587265
  0.05408402214424031 0.22662127654884154 0.3623966448007818
  0.032527089830385054 0.29192491399473486 0.3840828728061843
  0.08023365241874728 0.24852872975716758 0.38430146347759364
  0.002436080549047404 0.2769475012508384 0.4052404163970153
  0.04829796350546567 0.22829388851722557 0.40030560490234945
  0.024817004034151116 0.2999948670117726 0.42159277784483024
  0.07919703634336435 0.24954921549663497 0.42255991447821695
  0.9227789093562202 0.5334097406742774 0.5058073757572772
  0.8602823975828594 0.4018091990378203 0.44300958013896075
  0.677257399825335 0.6870655350549558 0.5611743594236721
  0.03188231352036227 0.8712179166038165 0.7000086659165333
  0.9217134340935245 0.6633400091362294 0.9043515465283861
  0.14127902846828763 0.13509826964656246 0.7364256175981324
  0.08883205072462981 0.2555258735783364 0.6268265425302759
  0.4858249879380678 0.8415071171842472 0.898082315237326
  0.004627979135460821 0.3663056508785102 0.8880792502683549
  0.9713949952829952 0.6197466600492949 0.008514907303272194
  0.0742609554322215 0.34144447097234687 0.04861011725545246
  0.025770470821659088 0.38601835894027187 0.04927592919005339
  0.9526833833853272 0.40689742981484206 0.06518017976147912
  0.05766847951720991 0.30874679478904743 0.06755875127665208
  0.08236699432423847 0.3314647580141402 0.0796163143816718
  0.026403846411633975 0.37773302730392194 0.08640037753894084
  0.04911339390869452 0.32660208791745193 0.10635122437103241
  0.09854109413077605 0.27845088400119156 0.10390377137684559
  0.026563886984485748 0.37698696978496943 0.12582930533240144
  0.07451527452315983 0.34401520776487093 0.12530786491101037
  0.00129209114528539 0.36312087412511557 0.10661378735192294
  0.05034480685683121 0.3189527593350315 0.14344250285640947
  0.021238021313091465 0.38723376915195323 0.15627199604174338
  0.0679896587349042 0.35251093601556943 0.1612373085603268
  0.04913235864079167 0.32195349991719674 0.17662761687874123
  0.9987096090049371 0.36328514176874155 0.18437996045779395
  0.022369143747687913 0.3883280868529069 0.19771653316575769
  0.0772290020125478 0.3386438485360968 0.19544039425590795
  0.9710182151477643 0.3462542761247523 0.19731366547484627
  0.05817440756830029 0.3106911006935885 0.20992075536078114
  0.02739157983124086 0.3873786310181078 0.23676165640825533
  0.07601357019381327 0.3380942506486413 0.23418559076321602
  0.993397382472068 0.36848278652891037 0.25258279168950565
  0.10339896772950818 0.26635489423516634 0.254986018199012
  0.056173348832536135 0.31085569959384446 0.25873383151288515
  0.02704229314895078 0.3850666122538096 0.27424868567896304
  0.006977470733537103 0.36146292045639616 0.29300046100829463
  0.05350761874185695 0.3180613958043299 0.29385194792599384
  0.027509469472380896 0.389997196517601 0.3072533353097825
  0.08368698732877403 0.3358698660841981 0.30930452916824
  0.007163995001165754 0.36617507539054095 0.33166559232781906
  0.052935630967948136 0.3214038712553403 0.3300477671841905
  0.029631830433350097 0.3902238975467899 0.34687035275073486
  0.07439932232849779 0.34879471310919763 0.34602140758502875
  0.003092873242595445 0.3651108457781014 0.3712610048768298
  0.05309684004844702 0.31357207203277226 0.3674712526550699
  0.027556765768295254 0.3818905653765039 0.3855748812261528
  0.0791116943052164 0.34328283815313826 0.38439169567334985
  0.010887875976580844 0.35770214590974747 0.40467868920653316
  0.05914190833360651 0.316037222861961 0.40320574392651315
  0.0074590523223879625 0.4534875092796367 0.40060171900954933
  0.3266908290965546 0.08876134235916716 0.5881525150787755
  0.03437868020344841 0.09525854025657676 0.5692622142658182
  0.08033463606115296 0.33100745733927633 0.4528461603523816
  0.8482710624556196 0.6698079169947111 0.5488671962729268
  0.07861907467741773 0.4347429399406376 0.4267868480427955
  0.8684542500881544 0.9799773692701662 0.008650789364825032
  0.7386369556030925 0.7848552596209626 0.8186525654519501
  0.1279675629698377 0.510091309149264 0.7850010399388786
  0.2709894008168442 0.5205040794644499 0.8845474858738979
  0.935509471495792 0.3712112475522818 0.9000509021560067
  0.04393352865339486 0.42878741670174836 0.02863042153823883
  0.07703122727304348 0.4296711995966966 0.04968947223933597
  0.02522373237496032 0.4813977109531899 0.05090671726884689
  0.0013364174666118144 0.4492790991921766 0.06492638582496489
  0.05261221769420379 0.39574902877124307 0.06755417612306443
  0.07591157399537228 0.4271912178810786 0.0843128366269815
  0.023887304542159715 0.4709487177397193 0.08828813674423999
  0.05149653672025497 0.4072079416007427 0.10518481438138412
  0.09638034626606448 0.3672940438593997 0.10304237162637313
  0.020712754271872223 0.4863866071316106 0.12103924661374446
  0.07458883784875124 0.4320645924179227 0.11982543294942427
  0.004659140143565374 0.45909873506959814 0.14116255131857006
  0.047764822874861654 0.4124311554986864 0.13897410285248338
  0.018854968687463447 0.4812820112547199 0.16453014826742934
  0.07258238033976376 0.42433203602964287 0.16079377283752527
  0.04540316521229649 0.4185195361153802 0.17913251346797288
  0.0032066148855250695 0.4393431824828149 0.1768678124420922
  0.030868556717561845 0.4765288445409355 0.20012357230325373
  0.0764459109856239 0.4302402820228069 0.19923141735366437
  0.9981144305546266 0.45861967816319127 0.21345379063123465
  0.0446371806683652 0.41445846915691675 0.2179399828991127
  0.025230958694799833 0.4827024915346664 0.23700185197160634
  0.07866421734511575 0.4297429956290458 0.23499640964902516
  0.055519017907962584 0.40094090204633615 0.25308860033613895
  0.10242544354438642 0.3562623385822583 0.2560408452761618
  0.07812115347848458 0.4220005295296429 0.27273125973906326
  0.007738594023039875 0.4551789496104419 0.28749121356318097
  0.984452753468781 0.42767525087908664 0.3085991929901459
  0.05105700604921813 0.41286103633534477 0.2890378696510018
  0.028060456157424737 0.4769815402108491 0.30625188502448847
  0.10275111130880829 0.3617437583066421 0.2945941395079884
  0.0004933169807921356 0.45961520951411927 0.3321612339664798
  0.0489900773332498 0.418260718146569 0.3277703573983442
  0.027891866627202715 0.47831906013765313 0.34892663011317865
  0.07755939931364442 0.4382618315895664 0.34376941531911376
  0.006256543405176007 0.450024952894252 0.3696203039652631
  0.050972604392147736 0.4122657549633173 0.36793130976582683
  0.03117112153170269 0.4764677335632822 0.3851974310551727
  0.07912236060088858 0.4395413437890939 0.3824879234304939
  0.9709074478105072 0.4337610666214619 0.3820621799716443
  0.051146363300794875 0.40767154274101014 0.40952835200942905
  0.03289026995357458 0.48012315519013576 0.4210424885383171
  0.12660544489155615 0.38757944259628524 0.42094463108658153
  0.11677977136975332 0.9386649548167459 0.4617003534204571
  0.06218145586658143 0.4874728103036411 0.40129942993166406
  0.7841097985857598 0.9555699063283472 0.4662729652561016
  0.11308457371398145 0.7918264709984448 0.6776844581608547
  0.7932018000714877 0.6730674236661499 0.8586127194119753
  0.8798283732477019 0.6047369023174751 0.7197123273672927
  0.9235671594727063 0.12531162598591153 0.01400683270855267
  0.1806412632759621 0.2514621758378041 0.008242863587447273
  0.0022756965607812715 0.5423199098830086 0.02703623468814642
  0.1706779033007659 0.5256947032693723 0.97564006467976
  0.06916017190981517 0.5331277992176344 0.048980450520851794
  0.05192195535580471 0.5819024125108649 0.06962799157426086
  0.001858648281611186 0.5496293722050766 0.06888948553265635
  0.045696937261175484 0.508973995599575 0.06393611924844066
  0.07501545652901634 0.5223886492181758 0.08818100189772947
  0.02129190013316517 0.5741297467706459 0.08374488214411616
  0.048986687693063656 0.5109950836803844 0.10299179076170979
  0.09450012014972356 0.46210378169090455 0.1060739192285817
  0.026025462022117973 0.5705152006742237 0.1242363893583056
  0.07536738792414542 0.5212349690442876 0.12517976061055655
  0.006541872915661972 0.5418563061280324 0.14068216019186808
  0.05444703356583776 0.4882608694950367 0.13865511297734529
  0.025288092959811544 0.5739816738772883 0.16371805850562368
  0.0736358792641936 0.51988866862814 0.16187655918659952
  0.0466232354131346 0.49996556641823603 0.1776354215440181
  0.005280085580237764 0.5454874489061583 0.1787563341729893
  0.021634349980672506 0.5753161569332441 0.19711922144737168
  0.07576940364835767 0.5272311020141449 0.20102716513681215
  0.005373780420119662 0.5467134076771272 0.21676950610627538
  0.054362317587504275 0.4998476597883363 0.21915494035182978
  0.026842757119731168 0.572219458814474 0.23393395731589595
  0.07756564110082141 0.5244603340131656 0.2356343893993013
  0.031378217253492775 0.48117561947042803 0.26997345882651497
  0.10264994463906156 0.4501940657347472 0.2544369997684955
  0.07937251130985087 0.5211203995564133 0.2736373943246148
  0.0507327210686456 0.5045833077493168 0.2538930648419652
  0.0014264850965393623 0.5479007977349493 0.2886782117439736
  0.07739041707063106 0.43151750000167344 0.3068441132388882
  0.024713862769274102 0.5770024344194459 0.30828782837098717
  0.07966930449233627 0.5183795482000033 0.31061480232069955
  0.014238642726555355 0.54239938473682 0.32740815773932286
  0.05397644919769321 0.49559063571916545 0.3250824546656071
  0.028671502260329905 0.5723034875245664 0.34877793762158044
  0.05731841590961662 0.5932766509541981 0.3249833263378749
  0.003425971203831376 0.5468744663180825 0.3666223074893638
  0.053311868417183994 0.506130783892997 0.360454746278029
  0.04802181617814023 0.593485787338669 0.36092878302474807
  0.0811756700789794 0.5222282049082442 0.38443744720922624
  0.9983121016444432 0.5471959371813582 0.3993842198048391
  0.8656707172295967 0.5744425513701773 0.546887171470277
  0.07663901473598242 0.5278686525386664 0.42176434610436664
  0.2548531005122794 0.6755049810479995 0.43373218536402874
  0.6701167533503091 0.7481728664616375 0.7137697112073501
  0.15611952015055 0.4117389795147676 0.5968071806153901
  0.6605352390264283 0.9005923517907897 0.6040753204397511
  0.7069288589392931 0.6420235543505944 0.4535807266783968
  0.17165527749769782 0.4395865762493878 0.013123319715739979
  0.6754848546036627 0.18145537264741857 0.8471430635429669
  0.888173382043189 0.5318326046181033 0.8241910430449847
  0.3796584212375977 0.26448068879457914 0.7417709220396891
  0.2342952493419097 0.32995732458879645 0.888485930587256
  0.9903962233570194 0.7230714817768346 0.9954187078143171
  0.9777571447281861 0.6997291031092396 0.013034485483580015
  0.9739279623680162 0.708315333937504 0.04824753633363217
  0.0015742630134147895 0.6416855162120988 0.06277301353638344
  0.07777229796240331 0.6206546531587193 0.05129014055701086
  0.07785396720109335 0.613769404662509 0.08804908496928592
  0.023693539899868162 0.6645226294558618 0.08237678413381283
  0.049651938508438 0.5919536708351 0.10472412183262893
  0.10025322253362116 0.5394208366799181 0.10991310852660797
  0.029997295648742137 0.6593815214388916 0.12690535603869385
  0.07096253670762517 0.621781620097843 0.12375383774240946
  0.005816997097090446 0.6400156625957232 0.1401928729331902
  0.05071614873989118 0.5911873440303904 0.14046992390044158
  0.027870753227543794 0.6629424644276375 0.1621841111777685
  0.07775323224327246 0.6177099729067773 0.16469409127098636
  0.05298373090363134 0.5925826209165276 0.18493279151630015
  0.9957086180641408 0.6458528605220848 0.1765805944668683
  0.02925932534882145 0.6552511101598439 0.20038156013055664
  0.08236175851088415 0.6144902770084003 0.19734416649876385
  0.005979126480374058 0.6378760033120496 0.21728421088488462
  0.055458079243122724 0.5919550929334501 0.2157337421690741
  0.028239929777695745 0.6715263437113835 0.23529125288022845
  0.07767779247081602 0.6127325166038742 0.23737167688660704
  0.048571674848018095 0.5917985204677564 0.25540667815387535
  0.09633718837977061 0.5528819754025511 0.25572312627702026
  0.07596357203022262 0.6127610035561513 0.2720487993289073
  0.02904603961360064 0.6593336902970106 0.26925795564044835
  0.0017940545793411684 0.6325365754541421 0.29279330822085436
  0.056002861869394155 0.5819452176787665 0.29474410287558317
  0.02710393897708099 0.6613048594116644 0.30441419833345396
  0.07758856927062696 0.6118377825381517 0.3047573348525268
  0.9944804822285945 0.6550136243425044 0.3278834653620386
  0.07441759826116034 0.6181042674655538 0.3484208214665454
  0.02670017267047252 0.6560228377303159 0.343803728971021
  0.07911700602289433 0.5241207325752039 0.3430081605971707
  0.9990205032294434 0.6396280791924198 0.36855530988014074
  0.0983640206732521 0.5479843862625307 0.36091607426478245
  0.036555086310752646 0.6472106896819462 0.38293273002929207
  0.07580482260683406 0.6104466174145828 0.3808828070468311
  0.9739033117835784 0.619583331298698 0.3789612425400233
  0.04946193125110906 0.5815642635665335 0.40263257885206183
  0.0028422849024839826 0.6311321483794388 0.4044588276591272
  0.03291190370022185 0.6436961935813289 0.4190942356355814
  0.8676524289764016 0.6639953722281522 0.6078498221495522
  0.9987012319041801 0.4982093620396792 0.7513190134018896
  0.03215578327198415 0.3740826412616606 0.4665055355634732
  0.05600554012606377 0.1646574789165024 0.5397295978576172
  0.7274575249698026 0.3148634509471832 0.9833314062109777
  0.10893924780983821 0.3547600306075773 0.9903588932236108
  0.8681514975431183 0.38918857841170623 0.8793623118079086
  0.28674967730718093 0.45172706432691645 0.7487162593609223
  0.017917406612345525 0.7523741419623535 0.016718500822425576
  0.05409295072837635 0.6805208641125696 0.026333058999246442
  0.07077041054375002 0.7103392559790406 0.04898515276203908
  0.027316744306725173 0.749875753237938 0.046022105376045425
  0.9934621074942419 0.7309722403821256 0.06380547319599367
  0.04671935941067399 0.677880295908855 0.06594105322062319
  0.08561923375672474 0.6984006693716588 0.08896487821241139
  0.028317445244410794 0.7480351337496828 0.08482563509159588
  0.04478397980704673 0.6920420312389358 0.10479236787364454
  0.10190387866315045 0.6283105634166982 0.10873157511260056
  0.02406446984123762 0.7543803628441973 0.1237754426343511
  0.07309789705964227 0.7084234383438847 0.1204364701285732
  0.9959888949525224 0.7415621084851689 0.13907958556019834
  0.05294932105106716 0.6783931640467755 0.14307267794140877
  0.022362612341079453 0.7569821481451245 0.15885568694276211
  0.07374198017665806 0.7066653969324642 0.15593394302665683
  0.05597203273684318 0.682376200488312 0.17522965328251863
  0.0035966085889857216 0.7263898757980384 0.1761993316678985
  0.01979980977864489 0.756707206581574 0.19507311109290038
  0.08302893133384517 0.6905107400199147 0.20136013464791247
  0.0012203472944626785 0.7250157107727857 0.213499542167111
  0.049953645457809955 0.6851328527265008 0.21512880519470867
  0.024844284300269404 0.755458178105631 0.2346583566339386
  0.07601583995370233 0.7034053264884592 0.23123207494719664
  0.051117326985201335 0.6917123586903989 0.25121024561321437
  0.10048733410108321 0.6286030910271168 0.25291576120060594
  0.08230672869143883 0.6983582243353027 0.2695769455155864
  0.032710514368607085 0.7495440669753642 0.2778071384693479
  0.0017749852800614883 0.7299204702923134 0.29069636282652045
  0.04629975043707834 0.6872255428015114 0.2891865621426
  0.02877438098050903 0.7483218104103312 0.3129722772943295
  0.0809808037322768 0.6965047234330052 0.31014711995396327
  0.001452283132697175 0.7277451129126937 0.329893991188606
  0.05243735926562726 0.6859577372618912 0.3237772650171338
  0.02555245041759671 0.7437043538108032 0.34633531395618056
  0.08084367557952785 0.6960516547573964 0.3500450009901568
  0.0012422442488738427 0.7201548890627537 0.3699774201202981
  0.05160503244837334 0.6773622702964052 0.37072469520627893
  0.0315247520902847 0.7314342366145894 0.3862789465282504
  0.08197294327579539 0.702745816771433 0.3832911170603237
  0.004773516707319041 0.7147863526910667 0.4065786488213993
  0.054828388493558707 0.6775372466090331 0.4056407423359336
  0.08831068957887495 0.9230012520263144 0.6345674482253595
  0.08036219227572175 0.7033414838434844 0.4187066184566288
  0.001092201568658434 0.08570589792383367 0.4358481938983112
  0.5413617215182878 0.3950003882666295 0.598895229877748
  0.2248763642248677 0.5677548024603994 0.4602350333964164
  0.5149227690875082 0.47286947500540966 0.5976777306730378
  0.13881579314307893 0.32195203517473386 0.9517882639762093
  0.3514532046920796 0.3016769683022314 0.7752813803171418
  0.348342322097987 0.569448088363832 0.7539357470788189
  0.9603122432188054 0.591025205002523 0.8514259156513945
  0.1563735398626756 0.766405607158051 0.9933069061465651
  0.02850064218521466 0.9328531158211093 0.973877359672523
  0.07536068757440882 0.7933269619952258 0.04688795319250585
  0.025006282979152618 0.8506977701696311 0.012782852036259942
  0.0052260259644392616 0.8212709705385575 0.06397297465234106
  0.05020235129909644 0.7747239892472069 0.0680579513681032
  0.08108102421318457 0.7984741320444543 0.08779478268237306
  0.023191798893317985 0.8470363356580882 0.08731604369446665
  0.05297088662235666 0.7812476967094661 0.10301860624523734
  0.10615007447909854 0.7226010364719272 0.10713103388252532
  0.028163024026435408 0.8442994755305501 0.12317431828797537
  0.08230569200506586 0.7871847601924008 0.1256844254687929
  0.99937145732451 0.8197280688638118 0.1373054426689922
  0.04598011153217602 0.778664296569623 0.13776677065574564
  0.02705978344269042 0.8366088107593046 0.16076581356560082
  0.07825608029291038 0.7948459326532027 0.15939326748930951