lammps to VASP
1.0
 107.3873388444 0.0000000000 0.0000000000
 38.3977711219 39.7403096596 0.0000000000
 0.2304800832 -0.1531144548 54.2384995042
  Li   C   O   F
  10780   1568   4704   7644
Direct configuration=     1
  0.38070998039967846 0.929732570303285 0.5189597842361328
  0.9390816272584975 0.9204255809622813 0.04439558656693274
  0.8150581788376929 0.04616034867348346 0.7754104627605003
  0.9642332154044599 0.5622604454173107 0.9979737731459852
  0.7769729022851485 0.7202763286734307 0.7243231350259901
  0.3203703152226317 0.567077570923866 0.004727278559082615
  0.46563072599746125 0.4902380872507036 0.4768550058798944
  0.9598865600613748 0.4344731729197579 0.7268969525407823
  0.9237990989661543 0.8632800110759824 0.08957327441593914
  0.04319236717794128 0.6657058320814051 0.9062234473536374
  0.9573350227558193 0.8403759759769632 0.09013855554060625
  0.9272370049272886 0.910904191556775 0.09022428800080526
  0.9514037430632901 0.9291125031430436 0.13204882261617806
  0.9483887742616127 0.8804494328761531 0.13344985694962402
  0.9177851722381613 0.9522943160357404 0.1323911993443277
  0.914585454323457 0.9039688720066034 0.13325258010572522
  0.9729586846138869 0.897528800779642 0.1755057770220931
  0.9697765737679132 0.8494416976694404 0.17618260253046
  0.9391719777484718 0.9209994241074018 0.175700657044524
  0.9358763238740384 0.8730479538437944 0.1763127683732568
  0.9605790471672676 0.8894925504083878 0.21885192452783694
  0.9572637268490368 0.8417013940253733 0.21927413384795685
  0.926710306669572 0.9131142768305872 0.21907870071287952
  0.9233185713351499 0.8654333775300391 0.21938106895960294
  0.9514102103302076 0.9294359522276434 0.26171631091852693
  0.9480901091607 0.8816321786431864 0.2621293016945394
  0.9175036233379973 0.9530853725607955 0.26194677452121246
  0.9141683433710822 0.9053242488359403 0.2623265785384382
  0.9388825650617093 0.9216057480886228 0.30498631324994346
  0.935581887625455 0.8737740603822314 0.30533846163484696
  0.9727943556406538 0.8979414428426218 0.3048111609119024
  0.9694981379704328 0.8500972160741689 0.3051743715497348
  0.9602773732325938 0.8901337365587957 0.34804244535806783
  0.9570318691252935 0.8421737440945956 0.3484019685782572
  0.9264051586443562 0.9136873371967865 0.3482212851137518
  0.9231070088037342 0.8658227808344247 0.34853287190458265
  0.9848677287626388 0.9067351231309685 0.39078330325771826
  0.9816877072742882 0.8586442030185505 0.3911225456808714
  0.9510046851988175 0.9303684651498225 0.390759335043039
  0.9478875296674268 0.8820744889506692 0.39129769801891245
  0.9721518561881751 0.8989627023897007 0.43402933737445554
  0.9694598356372405 0.8502610654366246 0.434564012932686
  0.9388269256126428 0.922080408490732 0.43406068042442075
  0.9358156735220672 0.8731775782582638 0.43462485532379497
  0.9604896735890269 0.8882552744892224 0.4796390062003357
  0.9912171242782154 0.8176985779573885 0.4773859940204819
  0.9443851249607468 0.518690454368607 0.7525042243623786
  0.8065577004082042 0.10671795082413267 0.620806259534929
  0.5961828288018945 0.19397088945793964 0.6654055759266357
  0.9241054534705926 0.8645721222020711 0.4778377026817455
  0.2185432837378835 0.06196833205265367 0.6945177382178739
  0.7327635533455997 0.871846230510156 0.8179448252721446
  0.8083968460554553 0.935095888901563 0.8235681371776719
  0.15771522885362868 0.6707147897433582 0.6904210172165356
  0.3059240056999032 0.3785367421687797 0.5157406686338211
  0.13101673447309228 0.04992906309814519 0.6521032167796261
  0.41451248669105384 0.7784607810018912 0.4818127389008658
  0.5026070332902628 0.42171960728470936 0.6476709407727776
  0.46457819832687297 0.48374796347836124 0.7412354760454661
  0.7840497879353725 0.5022411627592765 0.8158559031774028
  0.9161479289632789 0.7686965388927077 0.0871145043316076
  0.9541723978794404 0.7927669861116146 0.08885846850584964
  0.9102299871264574 0.044206105878412456 0.04515796016461652
  0.9203862772042107 0.8160313773419964 0.0884281468669152
  0.9450505485842253 0.8329348890866352 0.13317108817581558
  0.9414931485731823 0.786163002046151 0.13297989557102766
  0.9110883468099629 0.8566381074604762 0.13299630457953887
  0.9075374512267222 0.8094356656797606 0.13208422182555055
  0.9664116474671182 0.8018431505640784 0.1763066841341459
  0.9629273647578414 0.754527922329091 0.17616416544224517
  0.9324402636469551 0.825675295969341 0.17628603459534528
  0.928881746575199 0.7784378354920244 0.17608156728704266
  0.9538354716821759 0.7941503000073943 0.2193054768979221
  0.950365299649272 0.746666053129214 0.21905288878937873
  0.9198525889229098 0.817962394279086 0.2193054768979221
  0.9163846883707915 0.7704200514456307 0.21899573381591272
  0.9447280288850505 0.8339208275732553 0.2623652964236894
  0.941284323081558 0.7863616659838072 0.2622620487296863
  0.910749859704243 0.8576930653616759 0.26247038782651405
  0.9072982640591329 0.8101563234880417 0.2623081414502234
  0.9321992857975313 0.8260948889210056 0.30543617820238567
  0.928738842087792 0.7785831470321142 0.30523152652320085
  0.9661719720188976 0.8023378414993763 0.3053550550142403
  0.9627422524684943 0.7547659064297246 0.3052020271820571
  0.9536915578335402 0.7944288495285886 0.34842224937529354
  0.950201426151952 0.7469746353085681 0.3481272559638561
  0.9196860295985839 0.8182514708798178 0.34854209044869
  0.9161854285034281 0.7708526018602222 0.3482434096196096
  0.9785424316793492 0.8104555222642472 0.39155950467156325
  0.975219634171866 0.7626878670105839 0.39155028612745585
  0.9446784810307339 0.8339607868398542 0.3916019099744573
  0.9412418311277022 0.7865122517190356 0.39147469406577495
  0.9662736944795584 0.8021860318418429 0.4351079070350239
  0.9627004592839393 0.7548871556576386 0.4346377612855454
  0.9323790869444242 0.825803963282924 0.4350028156321993
  0.9287560048241202 0.7788270290222151 0.43449395199746954
  0.9843374428483463 0.7229197099394569 0.4777676417465291
  0.9502191883409801 0.7476305768380148 0.4778819516934611
  0.9201344269515163 0.8180626319638751 0.47913382998324905
  0.9167500414451955 0.7706349002813556 0.47722190393536973
  0.23212412280373432 0.8319947097100832 0.5252763306585382
  0.39784514653006187 0.26755482380192186 0.8562976561766623
  0.9577598953389791 0.10405565030281695 0.6777528939041165
  0.9417949100963815 0.34131756538866764 0.51768946885813
  0.22974695676104298 0.9127431974262178 0.043740516822659344
  0.23501615904329373 0.87339416040257 0.7044037049186731
  0.5471928596882096 0.2810453702124882 0.9328318530652997
  0.04207570871296388 0.5312019516381471 0.47696378470036194
  0.15211736325312183 0.9254812527880385 0.04513989181816597
  0.6994884520714904 0.03618844157889852 0.04486757602523273
  0.31848954741683294 0.06489444856069729 0.9087677655272858
  0.29371235004684004 0.1851289240687108 0.6533071586400553
  0.16767949371526938 0.5039247885714578 0.019770458434541126
  0.9475191595844055 0.7000377359483018 0.09350129606011157
  0.931581476236567 0.6436534483984938 0.1305386407205002
  0.9130746286850564 0.7248398512464052 0.08725591679821544
  0.937711851591716 0.7393645200185487 0.13307023730328038
  0.9341422614613122 0.6913831421553914 0.13179789384557405
  0.9037613904152413 0.7627513323244318 0.13241166451224617
  0.9005419819136457 0.7154285169686398 0.13160614812813964
  0.9594525119280719 0.7070309488543356 0.17587396567374353
  0.9560100580629913 0.6594464437155229 0.17507084611110493
  0.9254310585430509 0.730691444912058 0.1757135630062744
  0.921917529949312 0.6832531771283995 0.17498566676355234
  0.946910738985137 0.6991131761126413 0.2186214609251514
  0.9434276267225354 0.6516405590382757 0.21812181583452914
  0.9128935150411186 0.7229174940596462 0.21856246224286388
  0.9094462158802942 0.6754224714766267 0.2181255032521721
  0.9378123033397695 0.7388569971651773 0.26193386855946205
  0.9343258263998572 0.6913671493271758 0.2615337837452
  0.9038155122918902 0.7626817796741122 0.2619615241917843
  0.9003330009151165 0.7152069730277206 0.26154668970695033
  0.9252431987283051 0.7311186472542782 0.30487937813829735
  0.9217659494116232 0.6836288917628174 0.3045032615387145
  0.9592390250561333 0.7072964521178524 0.3048701595941899
  0.9557483811448518 0.6597917832992226 0.3045419794239657
  0.9466964901988382 0.699510114219992 0.3477695764524881
  0.9432063469874911 0.6519778580441105 0.34746536449694315
  0.9126911813989109 0.7234105502125203 0.34783963738770446
  0.9091993319492322 0.6759357719804492 0.3474321777381565
  0.9716395690078551 0.7153561718954694 0.391052484745655
  0.9681343054724577 0.6678665016469694 0.39069849265193
  0.9376742440478162 0.7392235119174654 0.3910229854045113
  0.9341811477750803 0.6917261221729188 0.3906247442990707
  0.9590510949418762 0.7076982239983785 0.4339666512745251
  0.9556157855195635 0.6599615123304906 0.43349834923386804
  0.9251934465194622 0.7314996207046117 0.43380256118941296
  0.9216656814796913 0.6839693054754541 0.4333490088193278
  0.9463174115938602 0.7000284758115515 0.4770836257737584
  0.9429622272757887 0.6524835385020069 0.47675360189471266
  0.9128159965592493 0.7236681024032809 0.47673147738885485
  0.9091880774343869 0.6765464779471538 0.47654895021552796
  0.15573174727316172 0.4353517775494819 0.9555887510488813
  0.11940881451100854 0.14092083996020813 0.9491449887177934
  0.7995328755207828 0.2224281019336966 0.719146000655262
  0.6639734702216566 0.6738296010404873 0.9966204908710158
  0.028267729081384207 0.5837822939926463 0.9044811425173346
  0.8819937250109814 0.4804501777345419 0.5155544540428512
  0.46319034928345876 0.42182775943676765 0.5895314267960897
  0.6539818472143407 0.10371224625948221 0.4768771303857522
  0.021026031202997297 0.24752089632695362 0.47518091826998654
  0.8907558454035348 0.8072182955106711 0.7537173847669153
  0.9100502474008585 0.6758121252641968 0.08871226239630593
  0.28191467482438565 0.08751614845035174 0.9957834470660618
  0.22226656424492977 0.9695838763911515 0.9650525084295606
  0.9619444557846377 0.5719344708690774 0.1316203446860651
  0.9029218883218473 0.5800997276187977 0.0871427130765763
  0.7199302552571342 0.8125447310540537 0.7796731175557722
  0.9187471628709611 0.6356348078733974 0.1745367236655209
  0.9491860722183074 0.5642820940967715 0.17467426434360364
  0.8973245051840527 0.6673903703120138 0.13192732220484224
  0.8938294350618101 0.619743627333448 0.13129824875495177
  0.9526020294005259 0.6118155432123973 0.17463499334570604
  0.9280729241156707 0.5958010756705379 0.13140002148189772
  0.9400102368607866 0.6040607268830762 0.21787844627009317
  0.9152251317489849 0.5881385099491053 0.17442186060594245
  0.970519804664943 0.532692832684671 0.21799459992584672
  0.9365658262188309 0.5565038685229348 0.21771988731144554
  0.9060703387844955 0.6278573537483546 0.21778257341137602
  0.9025922226312352 0.5803430386941144 0.21756317206161938
  0.9308676759644434 0.6438498348927836 0.2611890101955824
  0.9274352024584618 0.5962600013229707 0.2609622340105398
  0.8968785794191135 0.6676794511748936 0.26116504198090307
  0.8934538978712768 0.6200943448245553 0.2608589863165367
  0.9182980618535841 0.6360865347222019 0.30418983103906216
  0.9148621819577556 0.5884540086713068 0.30398517935987746
  0.9522772978325345 0.6122320108018897 0.3042801727713149
  0.948835883000947 0.5646147319464263 0.3041142389773814
  0.9397295181038461 0.6044080557178442 0.3472127763883998
  0.9363013526295633 0.5567533017477966 0.34711690352968266
  0.9057286751391143 0.6283229859263183 0.34712612207379007
  0.9023275606278162 0.580592677922798 0.3470136558356795
  0.9646507807558334 0.6202111864940973 0.3904569667963156
  0.9611532423336406 0.5726467293987704 0.39028550187591754
  0.9306684668074199 0.6441787679767866 0.39032053234352576
  0.9271849341294355 0.5966015160905159 0.3900937561584832
  0.9520594127280435 0.6123793840495643 0.4333121346428981
  0.9825087844836423 0.5406846218079479 0.4334946618162251
  0.9180829908542298 0.6365129443048879 0.4331498882666075
  0.9147233077743493 0.5884597140838245 0.43282170809638326
  0.939626179938393 0.6039233312011038 0.47611567864247906
  0.9486302942618113 0.5646236427429178 0.4331296074695712
  0.9025993030407414 0.5799954215086045 0.47609908526308575
  0.9119418169126131 0.4471891022584975 0.8414189259872835
  0.49230877254417277 0.6943528752732576 0.9535237971688187
  0.27974933358806514 0.041069767877738486 0.9995483004795329
  0.8646430768448556 0.2390247067242277 0.0034053393340782723
  0.8961436794053671 0.6663036781038052 0.5160485680070089
  0.5351385300763798 0.5706886398694034 0.0028006028406313277
  0.9998152689629315 0.19767539310364557 0.9973671929437169
  0.8970282126088999 0.22178404755245157 0.5185449497512987
  0.4129630887786457 0.9076102603448241 0.005214017687954264
  0.1637458263850896 0.6114783859011368 0.5612821202333064
  0.4938052389935077 0.759099201706968 0.8610378315566987
  0.7981209743233342 0.41847785672803073 0.044669930439569606
  0.8523449585673839 0.24529745988403276 0.9548217681791438
  0.8957698442639181 0.4847816034622002 0.08732708395872474
  0.9335415228929829 0.5085010372494344 0.08744231576006752
  0.9296554436732355 0.46191378021257845 0.08814753438428528
  0.8657302809555482 0.5557482834411833 0.08692109927623388
  0.9242710406137713 0.5485950894164271 0.13087419572601036
  0.8995870793903107 0.5323380888843887 0.08738884820424446
  0.8869531055392366 0.5245692890865277 0.13092157904272253
  0.8561833474570771 0.5960131059942104 0.1309177072541974
  0.9456440876482917 0.5168683692890053 0.1744384539853358
  0.9116923325714413 0.5407249236611501 0.17422200256969356
  0.890289268273158 0.5723263824531116 0.13080192234020818
  0.9083352435196723 0.4930004524563088 0.17431824417017502
  0.9331193079864025 0.508926872365546 0.2175594846439764
  0.9297379762393962 0.46124477966354865 0.21755210980869044
  0.899162353648919 0.532771267006804 0.2174525495323303
  0.8957726345185364 0.48513764533521164 0.21761663961744243
  0.923997720704814 0.5486577991770176 0.26079076909014176
  0.9205848560073727 0.5010383165423682 0.26070595848435346
  0.8900212099629852 0.5725047456728843 0.2606930525226031
  0.8865909446612473 0.5249334073039573 0.26069489623142456
  0.9114499543980822 0.5408067895042244 0.30388561908351724
  0.9080296643070176 0.49320768618854416 0.303865338286481
  0.9454228141649768 0.5169699651838319 0.3039980853216278
  0.9420216267219212 0.4693177914827131 0.303918805842304
  0.9329024653857508 0.5090685080160093 0.34706159226503813
  0.9294710442195122 0.46147445868448617 0.3470468425944662
  0.8989239277482239 0.5329207358105948 0.34702840550625136
  0.8954343389069838 0.4854373555691813 0.3470007498739291
  0.9577434908211594 0.5249396580227703 0.39032606346999016
  0.9543218564514425 0.4773180497483154 0.3903426568493836
  0.9237797997762606 0.5488036790035117 0.39008822503201873
  0.9204214572394827 0.5011346581320801 0.3902080661054152
  0.9451380252525047 0.5169901489357662 0.43332688431347
  0.9418514449468921 0.4691185266067228 0.43376384330416184
  0.9113256801669846 0.540794452675611 0.43326419821353956
  0.9079054246651964 0.49342947522751385 0.43327157304882546
  0.936147981643692 0.556276971567208 0.4762392071335186
  0.9596661618202275 0.3899424201009387 0.4776330510025607
  0.8092538487393655 0.8127717131310046 0.8797311952977286
  0.9289423179715526 0.46099820330454017 0.4774947728409494
  0.5959469283427546 0.31668558441805805 0.6183817824346771
  0.16045785085071368 0.6796445586734015 0.9207832159168994
  0.8896491742305033 0.8150381554075661 0.9167565558507776
  0.8087573148798959 0.4856248428385693 0.519752579029371
  0.029750360387335834 0.9197588748814264 0.7341076977416076
  0.8058536995458196 0.9385844468326425 0.00210368090611035
  0.08037313729816233 0.37200720144234195 0.8946338937017867
  0.7725866467227871 0.8037464037405073 0.8152788223162781
  0.07205298950883135 0.31351544985104135 0.7732846664893288
  0.7058297567344541 0.31813230040637624 0.4766116363154584
  0.16739910306583256 0.11158953087331373 0.046713497297302876
  0.8637841400036955 0.7435585473209569 0.00021203565526728418
  0.457481102097163 0.5259281136872451 0.7859878202693561
  0.9480390221791343 0.3817761427964101 0.13128829272731574
  0.8894617523583851 0.38966057918231234 0.09099127087054276
  0.05579875465186697 0.9633952218013765 0.6238760347227004
  0.9174491269810293 0.45323766214544436 0.13130728292817703
  0.9142629596959975 0.40500961317247247 0.13132295445315967
  0.8837080846310015 0.4766057031342299 0.13165463767014468
  0.8801047452658946 0.42958977781935237 0.1327816968727181
  0.9389149274761667 0.4214363543200902 0.17445265054326123
  0.9356376816574062 0.373593280000975 0.17446186908736866
  0.9050109756006225 0.44520889756245297 0.17463702142540966
  0.9016443129944246 0.3976647960956281 0.17517704373922247
  0.9263985999127942 0.41352283758185987 0.2176516700850506
  0.9230578221001606 0.3658820149755648 0.21790610190241544
  0.8923855421332365 0.437547568574308 0.21797985025527483
  0.8890109450207593 0.3899478810956942 0.21846105825768225
  0.9171827065745645 0.4534142345526852 0.2607336141166757
  0.9137915285212364 0.4058107805072734 0.2608903293665019
  0.8831751003056931 0.477372794914809 0.2608682048606441
  0.879756700063927 0.4297925348754371 0.26116688568972457
  0.9045764737290051 0.4456742207346842 0.30390036875408916
  0.9011456626759325 0.3981034790664818 0.3040570840039153
  0.9385979390404704 0.42172853330288484 0.3038413700718017
  0.9351770313027569 0.37415714520889737 0.3038303078188727
  0.9259661504068121 0.41400835893176885 0.3469325326475342
  0.9225130767755143 0.366474765613468 0.34693437635635566
  0.8919273792163475 0.4379765797366631 0.3469620319886779
  0.8884512090833222 0.39042849930599643 0.3471224346561471
  0.9509393998608133 0.4296912667288427 0.3903223760523472
  0.9474017606343637 0.3823447151151996 0.38988726077047686
  0.9168832898782737 0.45370909680631955 0.390165660802521
  0.9132713390491406 0.4063608102497742 0.389933353491014
  0.9383567290190735 0.4217280021982186 0.43367165786308753
  0.9347428631729293 0.37467618330993097 0.4326668365553786
  0.9041837291180812 0.4460999111864158 0.43332688431347
  0.9004136843219299 0.39890750253777074 0.43305954653435474
  0.5538027937790045 0.8153157772834694 0.7804714434754749
  0.8291941491057547 0.5774935425648731 0.7097449293745132
  0.925209795277001 0.414087608490708 0.4778764205669967
  0.9221652022685939 0.36750736371757914 0.475829903775149
  0.9109564430507822 0.8675471709120973 0.8587903505033092
  0.46831180981204457 0.5031896927658804 0.8746019973563591
  0.07862473433954126 0.06576970515655854 0.9540474104741202
  0.9991325138256826 0.7278043609253103 0.04421969674536313
  0.6108313000753937 0.7807928437179729 0.9564700438655507
  0.22388658087177057 0.6095582565127354 0.4782949424694736
  0.8099628061369097 0.6094274849484793 0.04595886727666933
  0.23223134655759697 0.3301633475886036 0.5152594606314136
  0.8282694512128611 0.7204923847617563 0.0024558292910137336
  0.4513331608182669 0.4426476495039841 0.8879283247180481
  0.861513802289661 0.7949607792273728 0.8313227764808352
  0.7998285727292302 0.892032382644092 0.8264609163185809
  0.34863684977955217 0.4720353393798148 0.9472035633287703
  0.018709307198386347 0.6205340357094954 0.6943481170062974
  0.9796768800910449 0.3614628144150846 0.957742202952375
  0.8857420469901289 0.3416487902532307 0.09096933073556711
  0.9110208371461264 0.3578188061324769 0.1321244146778589
  0.9078480651343519 0.31038161759568067 0.13298284550514203
  0.8769213458508978 0.38155816340189275 0.133492077881636
  0.8734466422132011 0.33439262202053405 0.13432008751336463
  0.9324321594309357 0.32591241195617904 0.17477234965290664
  0.9291541894629216 0.2782486806591093 0.17561197465021058
  0.8983336318251447 0.3500935356174286 0.17585220990965
  0.8950118944615598 0.3024491926899105 0.17649916733510887
  0.9197535324728673 0.3182420234881361 0.21837624765189398
  0.9164350566485743 0.27053696952887163 0.2189404225512682
  0.8856788142924016 0.34225523833405047 0.21898098414534084
  0.8823504502197154 0.2944487850305438 0.2193515696184592
  0.9104163147985531 0.35818779246891896 0.26120191615733274
  0.9070827743932689 0.31049975616588876 0.26161121951570226
  0.8763823967825566 0.3821144715726998 0.2615522208334148
  0.8730507612935366 0.33434323277595074 0.2619191188888902
  0.8977608547654979 0.3504552921431429 0.30435945225063876
  0.8944139885027528 0.30272676003463633 0.3047079132178993
  0.9317939055170387 0.3265310938581703 0.30399992903044926
  0.9284442188639973 0.27886279044832424 0.3043059846948157
  0.9191026740947426 0.3188464607584945 0.3471722147943272
  0.9157514180690807 0.27120844573569014 0.3475022386733728
  0.8850720507529403 0.34271239260227065 0.347430334029335
  0.8817255472879753 0.29503447847471453 0.34785438705827637
  0.9438794844425084 0.3348231778155167 0.3897526700265086
  0.9404784588168799 0.28719480192474267 0.38997207137626516
  0.9098061176463001 0.35883491511677956 0.38997391508508666
  0.906365235819157 0.31118694840442246 0.3903334383052761
  0.9311460083911972 0.32717717771397387 0.43315541939307195
  0.927684435264185 0.2799518490149289 0.43348728698093913
  0.8970055797186685 0.3511970979133559 0.4328880816139567
  0.893622107106737 0.3035158133501158 0.4337435625071255
  0.9175290710342899 0.3211914680235895 0.4770836257737584
  0.9150795308369414 0.27306285258560564 0.4774357741586619
  0.9560617269766211 0.343190975423835 0.4742572201504229
  0.9109632868972065 0.22637282826103156 0.4766780098330318
  0.4150676597586129 0.4039127033521641 0.5160577865511163
  0.9533584958444826 0.8182240818749668 0.7045604201684992
  0.8186201805012301 0.16678033618567956 0.6875393003285556
  0.8070193730699111 0.6015385305456726 0.8746886516709689
  0.30827708812736954 0.8129361152943918 0.001427039768625571
  0.29171113881565364 0.5973011976549888 0.7800344844847831
  0.8936953541082107 0.254412703161639 0.05446647726252678
  0.040304869885033755 0.9812027222854038 0.0862101651546695
  0.7438925931695055 0.7087916730968875 0.04049632678037546
  0.05398828895733714 0.9103838949262247 0.5220793395620843
  0.627980964625326 0.9033351314167344 0.51084562171278
  0.16478147838301993 0.12505797142254677 0.8651861764050385
  0.13763796873274925 0.5029961868033727 0.8733611813195
  0.913861469921157 0.2228340614954711 0.09335896173909299
  0.9099718394387121 0.17608807491801826 0.09179162486994913
  0.8451467390552014 0.2703866466261053 0.08979599444157445
  0.9044825498503294 0.2624653658523261 0.13424541730609452
  0.9008227041606561 0.2149865571802677 0.13468587934354714
  0.8702716587097626 0.28647321227413997 0.13410990470771544
  0.8667442008882718 0.2388889410952688 0.1338246829530318
  0.925786723948684 0.2305226145371135 0.17646985236484727
  0.9223552142189476 0.1829019286412236 0.17659522456470822
  0.8916329901085164 0.2546277138226699 0.17688855863820638
  0.8881667061482357 0.2068199477349586 0.17665717318111007
  0.9130799188508097 0.22277934026108814 0.21931285173320805
  0.90966013873987 0.17512697885851916 0.21925016563327757
  0.8789913156305298 0.24660008651934048 0.21940319346546078
  0.8755580940870977 0.19890858174771675 0.21910820005402326
  0.9037670313395804 0.2627361018971652 0.2619873361152851
  0.900422311870019 0.21500261717614907 0.2621606447445047
  0.8697163171423221 0.2865286479687543 0.2621385202386468
  0.8663676844740329 0.23878113761591827 0.2621329891121824
  0.8910970269165873 0.2549930105596314 0.3050084377558012
  0.8877525928360425 0.20733742162766405 0.30508771723512507
  0.9251492847187802 0.23114515672704442 0.30467472645911253
  0.9218300490891509 0.18347011904509503 0.30493100198529893
  0.9124536495558977 0.22355090273668085 0.3478580744759194
  0.9091100339966496 0.17599675468359383 0.3480111023081025
  0.8783825712615533 0.24742585787470706 0.34810697516681977
  0.8750388316630534 0.19987276499452156 0.34814200563442793
  0.937013398270006 0.2398491212952351 0.39028550187591754
  0.933747157811436 0.19228477618782003 0.3907962092194687
  0.9030231826945443 0.26365261464442685 0.3907962092194687
  0.8996734817728536 0.21624507065816162 0.3910543284544765
  0.9241664007005032 0.23277971146218335 0.43390949630105907
  0.9208999346053202 0.18521791194048137 0.4341012420184935
  0.8900172384269505 0.2567688940796113 0.43415470957431646
  0.8867503406115745 0.20934062052526967 0.4339961506156688
  0.7972850069483114 0.10503466578197473 0.47938088696532793
  0.9277244602961727 0.062407301627785614 0.9147764125765034
  0.8799939102293743 0.29779343650081874 0.4780958219167533
  0.7686789145417993 0.21398350602303548 0.8548558758782616
  0.5603261095705981 0.45245481243550406 0.5224480813263812
  0.8023119071437053 0.20173818254994483 0.47753717814384355
  0.2261887443207626 0.17910258105595786 0.0016169417772384787
  0.31520203780830347 0.7964755663368278 0.7137513086435988
  0.5181278411003154 0.19977390406876816 0.08919347039871336
  0.8707705051105694 0.9211171713304882 0.561551301721243
  0.5457184984096421 0.920185089433856 0.8976317642455203
  0.26677215656292885 0.30679188050755674 0.5159821944894355
  0.8026617502298349 0.5603773657808983 0.9200309827177338
  0.924891039236087 0.6160536203181164 0.908220184007305
  0.06707130938258242 0.8320896140007689 0.5636236304365915
  0.9460951452411199 0.8360821547908965 0.5235543066192717
  0.9306980355969456 0.04448790976379879 0.6533237520194487
  0.9829082773181352 0.5424186188901294 0.5615660513918149
  0.9020777629892799 0.08213695534724089 0.08848308938979543
  0.7843773292367762 0.15942953011221472 0.5678033183348965
  0.8972071942833185 0.16739337230832196 0.1335239740442477
  0.915257728588873 0.08790772784174705 0.1754917648350498
  0.8629502903227684 0.19132363825482065 0.13304184418742954
  0.8594389745634256 0.1438484122024378 0.13179973755439553
  0.918791606973557 0.1354716455266949 0.17617633392046697
  0.8935417215913862 0.11999073471518067 0.13257372651765464
  0.8846542073904349 0.1592485728430051 0.17593112064720953
  0.8812083120550238 0.11158447725310025 0.17523936109738864
  0.9061937658478357 0.1275288859205757 0.21883901856608656
  0.9027516913968053 0.0799670211276533 0.21842602779007403
  0.8721523338294027 0.15126086014797713 0.21868230331626037
  0.8687970922425646 0.10362874610472524 0.21858458674872172
  0.8970270389213237 0.16736028861088237 0.2620242102917148
  0.8935975292433719 0.11978843059376908 0.26176055993024255
  0.8629768992467103 0.19112654594136977 0.26194861823003396
  0.8595978030995157 0.1435353132184439 0.2618158711948871
  0.8843739369875012 0.15975259340379014 0.3049844695411219
  0.8809813303646279 0.11217825565471094 0.3048609410500825
  0.9184439148870783 0.13590557478528068 0.30493284569412044
  0.9150140277324734 0.08838621694567465 0.3047761304442942
  0.9057443506027473 0.12845342169629959 0.34796685329638694
  0.9023552714682664 0.0808718007779261 0.34784701222299047
  0.8717039297043159 0.1522825429014902 0.34807563211685455
  0.8683422201444915 0.10460879564526866 0.3479484162081721
  0.9304433482240931 0.1447756279403332 0.390938174798723
  0.9270471999967292 0.09726501142545944 0.3909602993045808
  0.896326413435873 0.1687535285772114 0.3910635469985839
  0.8930441662238565 0.12110688780848236 0.39104879732801207
  0.9176297148616133 0.13774685355851674 0.4339408393510243
  0.9142522329748786 0.09002692153782574 0.43410492943613643
  0.8836265543061221 0.16158733597047992 0.43432064336825005
  0.8804159182624204 0.11356210511431154 0.43407543009499266
  0.9053255001307638 0.13048860372821103 0.4774044311086967
  0.9019145770195135 0.08096297063098906 0.47724771585887055
  0.871153210142855 0.15394909280441066 0.4775814271555592
  0.8945346189985611 0.17338351799225143 0.5196419565000819
  0.8737352754922043 0.20310847380232908 0.4771831860501185
  0.3727698850573473 0.28641912067723896 0.9913142968827838
  0.5722740248794196 0.6219157033814967 0.9334365895587466
  0.4983976916600399 0.9639295177449151 0.9486859052212439
  0.7490887783915676 0.9578620784644275 0.7140776451050015
  0.08687268712376886 0.009648495708620692 0.8204725500663996
  0.879310990990049 0.2922346754074651 0.7765203754710339
  0.7754538686584289 0.6350806727233301 0.04508126187764277
  0.08201564285497824 0.4126069770166613 0.032844935171215346
  0.3343848272295618 0.5557898983516112 0.7619311075666282
  0.8824389977917266 0.9966005320859088 0.9457875949538703
  0.1872980380811483 0.358875558096045 0.6826645342045509
  0.8502131744163053 0.999233131421316 0.13370262942904954
  0.8713170036125443 0.15338550795731926 0.08991694174026384
  0.8964921027410911 0.9830661281691162 0.08916433979933391
  0.8668333853175002 0.11872981965191784 0.9641140606394248
  0.8671869009868902 0.10684215655467351 0.08680033634842665
  0.8871022322676089 0.023911439487250184 0.13235856569818744
  0.8566087066557312 0.09522428017457059 0.13220424726982918
  0.8655392694435936 0.05580479064725002 0.08921209185781034
  0.9117860252219604 0.04033848502543141 0.17492722119391133
  0.908605304181996 0.9924242791089891 0.1753470336925633
  0.8780180935441007 0.06373430429083529 0.17536547078077813
  0.8748193728026309 0.015821535804008656 0.17599730979390085
  0.8994241488419781 0.03228516994737775 0.21848133905471856
  0.8961453563652136 0.984507142599415 0.21891276691894593
  0.8655314546214076 0.05589441931820922 0.21893120400716076
  0.8622028173599439 0.008192592888343104 0.21935341332728067
  0.8902093379764195 0.07219634761492108 0.26166837448916835
  0.8868857215336616 0.024494674086784178 0.2618951506742109
  0.8562564534683472 0.09588899620602849 0.26195046193885546
  0.8529326507056751 0.04818202645383359 0.26227864210907964
  0.8776162023944025 0.0645104462349421 0.30490334635297667
  0.8743073774566257 0.01672017333556005 0.3051891212203067
  0.911600868569171 0.04081179804884593 0.3046968509649704