lammps to VASP
1.0
 70.7165268249 0.0000000000 0.0000000000
 25.5387791770 36.8001128270 0.0000000000
 -0.4028314498 0.0228422219 78.9605257426
  Li   C   O   F
  9248   1764   5292   5720
Direct configuration=     1
  0.6548056661201719 0.476475369932437 0.8603640788996431
  0.37502586934101895 0.8218410591668354 0.9568376006797312
  0.513590821543437 0.6441719541360702 0.8843013561938754
  0.7888142792615632 0.46907560704139367 0.7733370494394154
  0.05102464140380334 0.9521608887931307 0.03379106173502935
  0.07550159176116955 0.8835849603470565 0.0163629862877451
  0.0760154915448606 0.9754436936306623 0.05087149512013346
  0.025935834706095298 0.02038664058815192 0.051366552614145175
  0.0010847081808610947 0.9974675235649496 0.06928360656856149
  0.050879870451319545 0.9527987878674513 0.06991898734304518
  0.07607959681748737 0.9755593415348126 0.08782692281714201
  0.026117746812530037 0.02082466134076713 0.08756210695119714
  0.051133542651714034 0.9529964205895901 0.10612796610945638
  0.10119440682423593 0.907624008321265 0.10656096727907165
  0.026195876829401523 0.021091638638555288 0.12386353697640305
  0.07619899402985075 0.975786764769927 0.12419813454590393
  0.0012227046562172928 0.9985447037979088 0.14194054427309025
  0.05123935832210549 0.9531886106847584 0.14234960943186686
  0.026261965423264283 0.021330281571570242 0.1601521758000497
  0.07627888157706965 0.9759653391002695 0.16046625678883178
  0.051307290091972435 0.9533563496786664 0.17856264085619783
  0.0012769545378594914 0.998774900150662 0.1782219642998173
  0.0263286924776804 0.0215173664202842 0.19641206608157802
  0.07635184763505197 0.9761194778155707 0.1967008179583615
  0.0013341078161074797 0.9989534858794904 0.21447172293654615
  0.051365006351297614 0.9535132191406828 0.2147756722805288
  0.02640163167015543 0.02167641809604916 0.23265549244030723
  0.07642585096994965 0.9762627532877998 0.23292524748309182
  0.05142319283419027 0.9536728020551597 0.2509950359828594
  0.10144459262601699 0.9082217388919908 0.2511812049560488
  0.07650370135273155 0.9764033074465434 0.2691560092858218
  0.026480842653507596 0.021833022554933485 0.2689014517102363
  0.0014475649467234038 0.9993514463814308 0.2869256478084065
  0.05147439794395571 0.9538676983706458 0.28723466297478883
  0.026555689849947973 0.02202231914953329 0.3051879375593631
  0.07657494805019605 0.9765547154151294 0.3054121002005503
  0.0014754350306727274 0.9996845740149325 0.32316654125593586
  0.05149844728678817 0.9541386476069688 0.3235287475575152
  0.02661825267110559 0.022278010610224445 0.34159093732368323
  0.07660335883196172 0.9767278239284782 0.3417302474396752
  0.0014667288706575942 0.00016016396702390236 0.3594504941938628
  0.051411728763927037 0.9545888741563883 0.3599355466886351
  0.026481610654871823 0.02280400417234806 0.37838147250158116
  0.07649950397522323 0.9768709178110353 0.37824722820798884
  0.9755634673436198 0.9792162215309663 0.4129443122792064
  0.05085635684242478 0.9553920932174539 0.39677294072373037
  0.3898640024751414 0.49288017241327425 0.5627318154494483
  0.8655551481245659 0.22265011963633627 0.5117924383091588
  0.838001220767632 0.3140648230899947 0.7870983559882292
  0.10325084296209874 0.01083780422016237 0.5901607108326812
  0.11513951742340806 0.5124726028282174 0.6982856241321035
  0.30759440207811295 0.7857114547126552 0.7105183187718045
  0.043207565942146295 0.29844557178525377 0.6991126196388562
  0.5143080962290324 0.4204770962822934 0.8841265853210853
  0.03926996084969522 0.2537672449846834 0.9402217032086804
  0.3773417648062166 0.5182563433031858 0.01348787878478937
  0.204561213525427 0.8218595979948152 0.9225926412576877
  0.9220598441099987 0.18294507644065022 0.9228763273120715
  0.2080453363494431 0.8028879953979886 0.9926093830491702
  0.026819014036479315 0.11115084679388601 0.05149661760425774
  0.0012052194370056131 0.0885324220150441 0.06903360823313576
  0.05129537557364235 0.04321543374698433 0.06948370655335005
  0.07631822707294762 0.06608697949013155 0.08763150871807318
  0.02637440283473602 0.111464073158447 0.0875366511936386
  0.051187943611044326 0.04363964904292144 0.1057686726557569
  0.10119221432231469 0.9981974394755728 0.10601436504214287
  0.02625414009613962 0.11180653413896992 0.12375892774384903
  0.07622085215596217 0.06645544614280932 0.12398461013175614
  0.0012384131100009316 0.08921499075973673 0.14176703985590014
  0.051232026813338084 0.043907332310010844 0.14207098919988279
  0.026270991405012534 0.1120677139245016 0.1600318625180566
  0.07625940933751073 0.06670138437173605 0.16029655173844146
  0.05129904834659137 0.044111170047926 0.17835240922660986
  0.0012904183365487875 0.0894753477051825 0.178052259249427
  0.02633294330910594 0.11226721799950455 0.19629048634398494
  0.07633831789959505 0.06688593183495294 0.1965729059427688
  0.0013586631750605255 0.08966670434788136 0.2143032843417558
  0.05137964200304146 0.04427154538032297 0.21460850014133834
  0.026415483025572634 0.11241211604049266 0.23252758042471453
  0.07643029903442262 0.06703163251319331 0.23283026331309725
  0.05147078940017796 0.04440257769322658 0.2508569923224673
  0.10148336032738461 0.9990258578416296 0.25110141825325333
  0.07653557185462556 0.06714092025959573 0.2690876206834257
  0.026515338384002857 0.11250348556742538 0.2687583422274445
  0.001527651030964535 0.08994156268453092 0.2867648079472157
  0.05157308514430799 0.04451049967322022 0.2871257477931951
  0.026637319443212237 0.11253234270833991 0.3050093673197733
  0.07665775209528425 0.06720698353637078 0.3053741065325525
  0.0016139087105699803 0.09007856302064292 0.3230297640511437
  0.05168492714920069 0.044588759729274646 0.323462891866319
  0.026788409278193842 0.11247963905494113 0.3413237151920985
  0.07677694061557971 0.06722083454104323 0.3417226487060757
  0.001682232023171957 0.09028180068258519 0.3594023688810655
  0.05175667069862452 0.0446109308556365 0.3599786061790326
  0.02686594030552674 0.11244342024979036 0.3777849719140153
  0.07681116469372462 0.067212063662227 0.3781801060611927
  0.001223044152242657 0.09102553578402649 0.3961967034257633
  0.051620800257127473 0.04461505773297309 0.3971085514577112
  0.02700598508356272 0.11313026535649173 0.4147350804975041
  0.04660636419997607 0.0032328397962716024 0.4917267157839052
  0.7764135413073002 0.25769906559888195 0.6372108028255931
  0.0007507944844958871 0.3595222359287757 0.4308317311725845
  0.4046404300979737 0.9069603535489548 0.4315105513741456
  0.19741767469550545 0.9296728890898885 0.5267784074231026
  0.4931025806947066 0.4435179478517176 0.6605959054782569
  0.33901845130389124 0.03506783557975514 0.7849365162791526
  0.5514785862623177 0.6797715392271226 0.03198724902405241
  0.05198371941973335 0.13516820834712484 0.03303891375423232
  0.9517218642956297 0.6467396621119806 0.7358069041911597
  0.0021963444269419005 0.179516793077441 0.03291100173863963
  0.076897518683219 0.156991357255848 0.05079804069533766
  0.026923886693024313 0.20232415624532965 0.050705336145422955
  0.0016303778465896412 0.17959194334549508 0.0694425467463524
  0.05167687242317433 0.13424377829810497 0.06933705099487843
  0.07639070128708766 0.15706065708429545 0.08756147372339718
  0.026562806407799126 0.20241629844168163 0.08744242689700397
  0.1012442399996034 0.0889532879975564 0.10589886429142946
  0.0762804082594403 0.15723560857220875 0.1239749850691967
  0.051318127461858806 0.13443752540108567 0.10567698127032214
  0.05134028988602916 0.22552794832508044 0.14210771641228068
  0.9513006991434366 0.225444800589779 0.1416631904967061
  0.05126451102147275 0.13467530613559664 0.14199753477508698
  0.026356025974149315 0.202678515813167 0.12379489508288698
  0.07628475669009772 0.15747420467883205 0.16029528528284154
  0.0513026106682476 0.13488647766312892 0.17828402062421375
  0.001313592559309052 0.180280240206282 0.1780395946934277
  0.026352646894549546 0.2031019899217697 0.1962968186219846
  0.07634380988132104 0.1576745153215997 0.1965678401203691
  0.001371478756351655 0.1804534163244436 0.2142488267509589
  0.05137709403707774 0.13505120238048762 0.21453757862774242
  0.026419506135157634 0.20324201711207085 0.23250098485711607
  0.07642405430985168 0.1578259287929031 0.2328150658458981
  0.05146961166106008 0.13516294992141029 0.25077213979727214
  0.101480919290649 0.08979631640014593 0.25108875369725403
  0.07652334373417692 0.1579115855267728 0.2690559592934275
  0.026510901182424322 0.2033062458255777 0.26867855552464903
  0.001557388002394899 0.18059056544645857 0.2866103003640245
  0.05158390913944695 0.13520540341041942 0.2870079674224018
  0.026636670935105407 0.20325962103583647 0.3048307970801835
  0.07665081471785284 0.15791326254913768 0.3053171160305557
  0.0017060414574102479 0.18050941967362824 0.322779005842358
  0.051729203089769714 0.1351636023052166 0.32326912415953
  0.026822378676371234 0.20307333533892352 0.3409627753461191
  0.0768250494037678 0.1578010379892984 0.34164792782568
  0.0019243810273629957 0.18034620579060393 0.35895277714309126
  0.051881502817479705 0.13506768911813752 0.35958853785425493
  0.027093774088046686 0.2027185766143005 0.3770871548784551
  0.07706009398202787 0.15755661891006364 0.37818770479479225
  0.0020567059978123417 0.18033132171278066 0.3951898712238208
  0.0520017020119034 0.13511975145720218 0.3961042521669686
  0.027762868341902794 0.20181812493916892 0.4132799230131873
  0.07769441606023943 0.15684888552761653 0.41560386903905444
  0.07628184758197028 0.06694575458753296 0.41496304250549115
  0.8255273631444726 0.20293099126225517 0.4516471954129952
  0.8685112627980246 0.44337085313446223 0.5998794911065258
  0.8716539631680111 0.7096108882894607 0.45263756369213853
  0.15693021144312008 0.5744169745530698 0.8839125543246977
  0.3501058065681699 0.045758996361963684 0.001478447602799529
  0.010861404034431246 0.3140062029337423 0.9734737614403806
  0.013613775332431927 0.036694065762664645 0.8831995398219383
  0.055706590854961255 0.05320501211477797 0.5240099354816607
  0.052526534069379405 0.22393655285497102 0.0315025764659601
  0.10183656214538873 0.17978528480490807 0.03332576594761593
  0.027037389759494664 0.29254910277783686 0.05078360310149848
  0.001856382593873303 0.270491165729414 0.0698085524147315
  0.051681547525283034 0.2249490097414167 0.06921661106732531
  0.07642835902194578 0.24793005145815064 0.08782565636154208
  0.026611096416894152 0.29337678929109373 0.0876032667581948
  0.051409201332799345 0.2253143533995725 0.10578538986967595
  0.10127820070696712 0.17985994117613804 0.1061136551611772
  0.0014422495806848388 0.3619541266812598 0.14216217400307757
  0.07635692756944658 0.2481650839944715 0.12419585492582408
  0.026319226348124215 0.20290926279604724 0.1600647903636547
  0.026443252251263132 0.2936395392909596 0.12397321203135679
  0.026387794310637515 0.2938425798157296 0.1602256302248455
  0.07634755911265668 0.24836757302440168 0.16046119096643205
  0.05134547308037572 0.22573696559879627 0.17836254087140926
  0.0013932466909489885 0.27099609326806046 0.14198233730788784
  0.026395093886884723 0.29403749814208496 0.196429796459977
  0.07638107607974699 0.24856030486673902 0.19668562049116237
  0.0013993295693269295 0.271369668072467 0.2143222811757547
  0.05139464777216518 0.2259109498569275 0.2145831710293398
  0.026444220542404126 0.29419711171455837 0.23259976839391042
  0.07644242877808345 0.24871473654510434 0.23288598735949406
  0.051469921526152144 0.22602516819780505 0.2507772056196719
  0.10147710551172423 0.18059004247577698 0.25111661572045246
  0.07652875173153796 0.24879581067473638 0.2690673573938268
  0.02652233137196605 0.29429153167875455 0.268731746659846
  0.0015580794323941487 0.27151639878411027 0.28656977378482684
  0.05157194261879934 0.22604728376405053 0.28694464464240543
  0.026622868906593468 0.2942827225340764 0.30481306670178454
  0.07664561905457523 0.2487684745874884 0.30522719768296086
  0.001688483250426673 0.2713978246615781 0.3226232318035669
  0.05171421167298448 0.22593055599632364 0.32308802100874034
  0.026761189964840438 0.2940864682053333 0.340807001307328
  0.07681157575847268 0.24858924858358786 0.34136804113809593
  0.0018879631434111598 0.2710781948570418 0.3586272980539098
  0.05193872884280511 0.22558830588050363 0.3591984695294772
  0.026903346619210216 0.29370279935052185 0.3766641587080793
  0.07699812123598633 0.24836845526732793 0.3774949535816319
  0.0021768944915454614 0.2706951926437542 0.3947238155630475
  0.05218193912848552 0.22515720834690175 0.39529118767181504
  0.026897265558807507 0.29357191943362554 0.41240480219363723
  0.07718472183533565 0.24874825600380365 0.41397520713754754
  0.9508770684332589 0.539363752517591 0.4970205001916027
  0.8518069122152473 0.4087825765209981 0.4270627593071998
  0.6751889450006324 0.6831699528805686 0.5633713755274118
  0.04345268741964654 0.8538058111695703 0.6982602950201049
  0.9022353103471386 0.6794519914642678 0.9364261357756974
  0.14435653578741794 0.1418875135791428 0.7487665443452192
  0.08377152812902657 0.26291055100127014 0.6256860568662514
  0.49133160654051095 0.8304773282169364 0.899239199995022
  0.9904123314297602 0.4039192165149958 0.9205435160970048
  0.9756037031930441 0.6142026350297064 0.016361466541025188
  0.07637548015174332 0.3391760697898602 0.05176219334356257
  0.02695075634788307 0.38393711396768 0.05125979040707128
  0.9519038426637777 0.40690649648596056 0.0698276758942904
  0.051593642340443904 0.31587978874938244 0.06952625946150763
  0.0763871158780432 0.3390963732501929 0.0882228168376794
  0.026615406160427114 0.3843002406410417 0.08789797097629795
  0.05146036450203872 0.316256595962414 0.1060136051687829
  0.10132856007915833 0.2709251819815231 0.10650169715699503
  0.026458830531045655 0.38459019284893664 0.12422219720230257
  0.07637755032696812 0.3392015776113828 0.12449195224508716
  0.0015756190932924364 0.36168041155944103 0.10594622973086676
  0.05139978304147745 0.31648405991763684 0.1423192144974686
  0.026414778837143462 0.38481770286976463 0.16045359223283248
  0.07638506743595104 0.3393720383118276 0.16069801816361853
  0.05139466614002424 0.31668983362603953 0.17854617693339878
  0.0014098950134449812 0.3621707974351412 0.17834481049301026
  0.026423454560147382 0.3850316530962631 0.1966412945451649
  0.07641480208683987 0.3395588217835185 0.19687432237555158
  0.9763991588048242 0.33951846588169887 0.19622209774158886
  0.05143012466079698 0.31687661002280815 0.2147338792457312
  0.026470385226577933 0.3852293155330756 0.23280240128989885
  0.07647055003167313 0.3397320293457791 0.23303289620908568
  0.0014930665399262308 0.36254439975313435 0.25064042841487966
  0.1014938331935177 0.27153184391256624 0.25117993850044884
  0.05149567124789235 0.31702264532754393 0.25088992016806544
  0.026544482362250467 0.3853943866684668 0.2689356460114343
  0.0015803279808563181 0.36265243021526966 0.28673441301281744
  0.051584639026523466 0.3170953372333909 0.287004168055602
  0.02662607543723735 0.38551057321003346 0.30502329833137254
  0.07662675225075172 0.33997253335306454 0.30524239515016
  0.001688790849210421 0.3626463683254586 0.3227676077419587
  0.05168128292220027 0.3170675229160538 0.323058892529942
  0.026691927085381456 0.38553985380702316 0.3410298974929153
  0.07667215805661876 0.340061624675149 0.34120340191010534
  0.0018089231793719884 0.36238221086649 0.3587108841235051
  0.05178291998639705 0.3169147671535428 0.3590198992898874
  0.026584842523803533 0.38542788708879605 0.37694531185126323
  0.07663391056978237 0.3402378129647121 0.37693771311766366
  0.0016685213281009488 0.36157995969610746 0.39473774657464666
  0.051599677083631175 0.31687066190211 0.39505309401902866
  0.0015216914322507 0.45378569248535466 0.39555334398100006
  0.29766927532364346 0.06033810308573281 0.6002480296861048
  0.03201300871136226 0.09012605055957641 0.5634815571646056
  0.07650050062611052 0.3385963174952332 0.44729945333844356
  0.8891390853545653 0.6617575085508056 0.5493783076038112
  0.07539810989831755 0.4315734111059132 0.4136978533611633
  0.8737116079174564 0.9764179224147475 0.013584002764823877
  0.7461828220162935 0.7742895301967619 0.825573277114031
  0.12382376818265395 0.504225457596544 0.7856621953379112
  0.27461831358549804 0.523647769924913 0.8975915412595162
  0.8841930105181952 0.3905291973707395 0.9448062724804186
  0.05179649204108378 0.4066083124969658 0.03363174162055845
  0.07654729238740676 0.429944556966987 0.05217505786913898
  0.026898243869816773 0.4749715524236396 0.05224015368697526
  0.001850576957362216 0.4522352040719844 0.06975966722857428
  0.05149746993957027 0.40718894709465553 0.07008096701427592
  0.0763969104863313 0.43009316186743024 0.0885691924442596
  0.026535019491069296 0.4753920610959524 0.08836769935831112
  0.05142315210767052 0.4073131631531549 0.10636618640780278
  0.10133339664298645 0.36200870967111054 0.10676018074494026
  0.0264248181225919 0.4756060210701214 0.12453969762120443
  0.07637554916228455 0.43023373960924827 0.12476196057899172
  0.0014258898307201483 0.45293196082944803 0.14240026765586397
  0.05139900103595041 0.40749719960580943 0.1425902359958531
  0.02639478902709061 0.4758172635040971 0.16071194917521772
  0.07638124234818791 0.4304123832738291 0.16091838143800594
  0.051405930831668535 0.4077002818726209 0.17877540539698566
  0.0014074359289358226 0.4531622184981942 0.17858290414579667
  0.026406049576089507 0.4760393792432565 0.19687812174235136
  0.07640885680987616 0.4306046180196179 0.19706809008234052
  0.0014347067677478007 0.4533870492620193 0.21475287607973012
  0.051442884414360374 0.40790609252784 0.21494284441971925
  0.026448010012001512 0.47625877524113563 0.2330480936762848
  0.07645996978077405 0.4308022867452503 0.23321906518227503
  0.05150390355960954 0.4081037604673698 0.25109508597525365
  0.10150598866119658 0.36262822670759937 0.25130405114924176
  0.07652368622450521 0.43100810840590403 0.2693687738266096
  0.0015590361907575126 0.4537959586922018 0.28707888893599776
  0.976618303781786 0.43107575859704306 0.30484979391418243
  0.05157294048677391 0.4082905745970573 0.2872219984187896
  0.02653268452319098 0.47671929372303795 0.30540830083375053
  0.10157912285523657 0.3627878732963768 0.28742083194797824
  0.0016154970799838822 0.45394743426560097 0.32322606466913245
  0.05161623124670946 0.40847741938474136 0.3232995190939283
  0.026494720110728794 0.476960424068086 0.3415858715012835
  0.07652401746433274 0.43151218519782664 0.3415998025128827
  0.0016086689814347815 0.453995668152486 0.35934284546786893
  0.05157547290000402 0.4086371461559713 0.3592871214214721
  0.026312116666319902 0.47704664000059976 0.3778014358368143
  0.07633045810236044 0.4315985119707896 0.3776367966088237
  0.9766392680055211 0.4310147321432394 0.3768997194496659
  0.051233410975099786 0.40862826154545545 0.3954900212010037
  0.026069976364921785 0.47682004716684506 0.41451598367871667
  0.1264116845664634 0.3854727794273422 0.41406765839634224
  0.17695717377268536 0.8866162129132427 0.4475628761032285
  0.05093037965109919 0.5001546273666903 0.39633981290855513
  0.8158057647205039 0.8988854829239417 0.47336944186295404
  0.15535870986595862 0.6988196750091552 0.6241561785015389
  0.7962104986997878 0.6851443693278327 0.8628716609874999
  0.8780981579422904 0.611667176043171 0.7126674939248817
  0.9256812794262832 0.11151026782602098 0.010925497163123772
  0.17479810967197787 0.25098825160137395 0.017249758498814435
  0.0015867097708438904 0.5443714153692146 0.03373115838515277
  0.20247812094686085 0.5496044827416718 0.9996946385580234
  0.07669327062851646 0.5204602993065476 0.052633388150752795
  0.05144693355910808 0.5887883879265429 0.07096039378286567
  0.0015100938800389934 0.5436883817495693 0.07031754092034241
  0.05155270397613368 0.4981313504767349 0.07048787919853268
  0.07647579782151882 0.5208970775309688 0.08881691115960544
  0.026447656084675225 0.5663127835072209 0.0886810204737332
  0.051424783573068136 0.49830454082335135 0.10667418840970518
  0.10137609655899879 0.45293496110201187 0.10692165383393103
  0.02636901211405441 0.5665756848318133 0.12480717304390913
  0.07637956995843237 0.5212007432948376 0.12493711138846172
  0.0013696412235178355 0.5439342309857288 0.14267128915424848
  0.05138067467335951 0.4985076368469562 0.142837194837839
  0.026342020057648338 0.5668168508659137 0.16092724662720542
  0.07635233155042843 0.5214310324076828 0.1610690896543973
  0.051376398582008154 0.4987216106565288 0.17898690348217358
  0.0013657903667391939 0.544150922964377 0.17881973134298312
  0.02634888835353741 0.5670389823271227 0.19706809008234052
  0.07636280846739867 0.5216314248051082 0.19720993310953241
  0.0013869645882551291 0.5443730371313314 0.21498843682131663
  0.05140285237023312 0.49893286158041117 0.21514547731570766
  0.02637510778722993 0.5672393550719859 0.2332405949274738
  0.07639855725575978 0.5218209335207967 0.2333735727654662
  0.026501753444264475 0.4764808846914753 0.26922439788821784
  0.10147727043311802 0.45370122114260536 0.2514585587324329
  0.07644686604246179 0.521999556982544 0.26956254153339854
  0.05145018984900953 0.49914138411588593 0.25132178152764073
  0.001444527499993145 0.5448117756721211 0.2874144996699786
  0.07656195148724163 0.43124111254341485 0.305504551459345
  0.026388305656416217 0.5676726234722184 0.3057236482781325
  0.07646123715718908 0.5221944603729521 0.30579077042492864
  0.001399151142543029 0.5450827390582887 0.32368578805190623
  0.051454410595681385 0.49965348963863876 0.32375164374310245
  0.026270066345536355 0.5680522475887962 0.34205066070645695
  0.05135441012476333 0.590416631665502 0.32402013233028715
  0.001201781114755337 0.5454297970287247 0.35994441187783455
  0.05129780344426465 0.49998153064487866 0.36000266883543125
  0.0513118127518389 0.590635849218119 0.3604775896854041
  0.07633540118641033 0.5225053797206898 0.37838147250158116
  0.0009441730298700305 0.5458095036860627 0.39613844646816665
  0.8416546789700033 0.5929360627380867 0.5509968378605188
  0.07593250966835775 0.5234502116346235 0.41472114948590494
  0.25332916272165995 0.6812165252592487 0.4314383634049498
  0.6641794997575815 0.7459574850937664 0.7127320831604781
  0.15350686312110978 0.4131418225885888 0.6012687928996465
  0.6549178454354379 0.910241367887751 0.6004215341032949
  0.7017861972607382 0.6337370893031388 0.4335660088128282
  0.17647735493294775 0.42768925602627117 0.016947708838231695
  0.6782062257033388 0.17990619775101327 0.847186608382396
  0.8903059758504912 0.602439318568631 0.8477767766919623
  0.3812031820739464 0.26503537428635077 0.7354067042215826
  0.22604479494162508 0.3464051652056793 0.8821749772415969
  0.001469453719029085 0.7231047019494314 0.9941066375176287
  0.977103706874302 0.7020452675878965 0.015538903628872185
  0.9765051120815804 0.7024082693495749 0.05237832399292736
  0.0014301456402961612 0.634410648811148 0.07077004550619656
  0.07640496327933928 0.6111173491767747 0.053085892736606945
  0.07641568730528661 0.611771682334452 0.08900472652507473
  0.026367910909394835 0.6572824367351395 0.08896546640147696
  0.051371667924655966 0.5892198535453429 0.10694710959148958
  0.10142295283135265 0.5438314242996347 0.10691722123933128
  0.02629332622871395 0.6576024854857041 0.12495889442478049
  0.07632005289939657 0.6121623596164604 0.12503589492525607
  0.001311290202966591 0.6349175305578595 0.1428599910386377
  0.05132201687438575 0.5895072485779494 0.14301323216622894
  0.02627068827334385 0.6578464025479634 0.16102476370839985
  0.07629468230072399 0.6124144066595489 0.16113747825679342
  0.05131500447922072 0.5897321155024885 0.17912494714256572
  0.0013013187198918905 0.6351505512035224 0.1789691731037746
  0.026278310430350324 0.6580386577324168 0.1971415445071363
  0.07630043170800134 0.6126120871767184 0.197269456522729
  0.0013148222082640922 0.6353427828049013 0.2151239475705089
  0.05133129117179404 0.5899243518204823 0.21527212287570044
  0.026297120920326846 0.6581928404694566 0.2333051841630701
  0.07632238722552999 0.6127771394456502 0.23343309617866279
  0.051360459637462476 0.590089389153467 0.25145982518803284
  0.10139533626265539 0.5446818583589366 0.2515586087248272
  0.07635109790619457 0.6129122792771122 0.26963093013579464
  0.026312400153510135 0.6583143886694388 0.2695106168538015
  0.0013289515585311836 0.6356673708221614 0.28758293826476894
  0.0513797125192212 0.5902435255104608 0.28769818572436234
  0.026304163969759438 0.6584196019135867 0.3057654413129301
  0.07635246861653844 0.6130338031079179 0.3058756229501238
  0.001267459540056676 0.6359056847353245 0.3239200823378928
  0.07633343638706937 0.6131226821823338 0.3421785727220496
  0.026256013467390663 0.6585383659118857 0.34207852272965533
  0.07641797865292359 0.5223811872452647 0.3420582594400565
  0.0010589649962632003 0.6365216394158945 0.3603788061486098
  0.1014085864035785 0.544959435863299 0.36035347703661125
  0.02618231433560508 0.6587222598441613 0.37853218071797257
  0.07634507278683286 0.6132142220403444 0.37857270729717024
  0.9758619674539741 0.614005120411723 0.37834727820038316
  0.05134487551487901 0.5915612986302052 0.39739856979009464
  0.0004586810327970532 0.6381346315279863 0.3972275982841044
  0.024434093926044478 0.6605714276580574 0.41576217598904547
  0.8677866626818358 0.6652434560306748 0.6026454301367679
  0.0010514445593023732 0.4916421600944964 0.7491844746931954
  0.02451877844027596 0.38365798127720313 0.44842406591117934
  0.05125392002108091 0.16770920133911044 0.5171330815740537
  0.8523646680999358 0.22178152524046518 0.996272175277057
  0.12488103430720357 0.29859687964799597 0.9806900254487683
  0.869907718123591 0.38447896578027607 0.8856703946973973
  0.28745822219794753 0.4593978297328145 0.7489653778744079
  0.02763808043022756 0.7426820320461116 0.018274321079155897
  0.05226608461862544 0.6777454229252732 0.03467124837697906
  0.07659214041897809 0.7019730782786768 0.053038527297169645
  0.026378894559997455 0.74775566224316 0.052852231678420285
  0.0014360904414216947 0.7253044873072799 0.07061629779636534
  0.05141845154213305 0.6796902693819598 0.07098255675586441
  0.07641097846701105 0.7026083234871044 0.08906412329271132
  0.026273941966484658 0.7482849551425821 0.08883654122140432
  0.05130928441690944 0.6802005166244454 0.10700549319464625
  0.10137694148338428 0.6346925162391063 0.10698573648728736
  0.02621995776543424 0.7486267251910146 0.12485859114126621
  0.0762941009866757 0.7030533695747291 0.12506122403725464
  0.0012353981768995406 0.7259852010673686 0.14283592838223907
  0.051255874032425375 0.6805096665214957 0.14304616001182707
  0.026219302262490488 0.7488570441757539 0.16094244409440456
  0.07627045230628882 0.7033353298413898 0.161127346611994
  0.051257913270195576 0.6807209567505019 0.17914141106536474
  0.0012368078182277452 0.7261828918038703 0.1789514427253756
  0.026241458069617796 0.7490248381968354 0.19706682362674058
  0.07627693221205889 0.7035384592743498 0.1972365286771309
  0.0012560844595012216 0.7263316484220915 0.2151011513697102
  0.05127305857965972 0.6808887444827636 0.21527592224250022
  0.026260022634625537 0.7491600039696793 0.23322286454907484
  0.07628845884450815 0.7037008043796408 0.23338370441026562
  0.051288892427626964 0.6810239000362752 0.25144842708763354
  0.1013312172236195 0.6355919096505781 0.2515522764468276
  0.07629376697761582 0.703849542917505 0.26956254153339854
  0.026267062566814686 0.7492842892051965 0.269396635849808
  0.0012744764797956662 0.726525846078387 0.2874892205503743
  0.051292944793745916 0.6811372992317487 0.2876487939559652
  0.026255968594095052 0.7494194510475279 0.3055590090501419
  0.07627146841057718 0.70402815615992 0.30576797422412993
  0.0012563643361088676 0.7265794542013276 0.3237035184303052
  0.051267383611132256 0.6812506897800947 0.32386309183589607
  0.02620154829589435 0.7496144503424383 0.3416327303584808
  0.07623100572421444 0.7042692519164591 0.34200126893805977
  0.0011968190246370407 0.7265950213209537 0.35991401694343633
  0.0512039005807973 0.6813858586973485 0.3600140669358306
  0.026087824726610684 0.7499536423052566 0.3774303643460355
  0.07609463141854632 0.7047466782369901 0.3783662750343821
  0.000856626700785195 0.7266131234477783 0.39641833315575065
  0.05095658643288779 0.6815971984508106 0.39602953128657287
  0.08406666346735571 0.9291230974127763 0.6245095196139187
  0.07588611570959156 0.7056421578261259 0.4154139006990653
  0.002335981513658332 0.09178568998089137 0.4341194499099966
  0.5337771943209016 0.40682750630011344 0.586714685145278
  0.22499582432523324 0.5706307975784247 0.4518941542549811
  0.5115291916490954 0.4822866047448911 0.5997021873225361
  0.14646751098640218 0.32223804774568765 0.9632813267721629
  0.3609053492721246 0.2938376262535279 0.7723504805270718
  0.3587407086640142 0.5623974604857744 0.7490514968552029
  0.9625953395439886 0.5930355472093753 0.8460189363192627
  0.15883817519533094 0.7644757254110832 0.9959308401637645
  0.02845423951405008 0.9276902562731588 0.9759952745398366
  0.07634721608058655 0.7929861659268655 0.05339338815626937
  0.027984888791462496 0.8359865431426137 0.01755041505823726
  0.0012480586867909184 0.8162937135096758 0.07001257841187983
  0.05131949262463281 0.7706111696882186 0.07100927896902288
  0.07630212590028931 0.7935808260059917 0.08913605797078722
  0.02618248087195826 0.8391299361654249 0.08859350839177822
  0.05125875899261875 0.7710915825532104 0.10694065066792993
  0.1013516956781354 0.7255590321749198 0.10707160217696247
  0.026196561378389525 0.8395260519866711 0.12461859780507992
  0.07628344543494218 0.7939634494018906 0.1250089194209776
  0.0011840787536778086 0.8169932212166883 0.14259910118505262
  0.05123724577634334 0.7714333581829705 0.14295370875303234
  0.02622597904687241 0.8397753741788131 0.16073221246481656