lammps to VASP
1.0
 77.2114367604 0.0000000000 0.0000000000
 -14.1869810598 27.1673034114 0.0000000000
 -0.0063794010 0.0834818825 73.8849032446
  Li   C   O   F
  6276   1344   4032   3588
Direct configuration=     1
  0.880546127842981 0.7321778498289206 0.006015707952253833
  0.5008439097077201 0.2774628676034528 0.9746077593364139
  0.646039596909576 0.1685103755504601 0.876567433344241
  0.01915216073974212 0.27948118347246853 0.8718046200421101
  0.41929712570462246 0.4615964506618265 0.027181601542490823
  0.9589358443327011 0.8498948221346505 0.01137371726965757
  0.00689688325969768 0.731224699799516 0.021522258677605866
  0.6726052270981835 0.7512065237686483 0.9504390872317957
  0.1806888103650396 0.3684474040770772 0.04644818967467715
  0.8937835065762478 0.3897644773321704 0.8978018118316329
  0.018519132383875137 0.763839370503545 0.8737711922864966
  0.2981230865842422 0.9860311017157798 0.10773459327203731
  0.2072472363821252 0.09384406832225983 0.07725894938378741
  0.022107049117919303 0.4335494453822769 0.9466805386270735
  0.10888018070011704 0.07126517160796465 0.9448452516598413
  0.22977839713588621 0.8688647080381863 0.05377038915308812
  0.002058594410303518 0.7191351242915908 0.10826162921970706
  0.003425941306255928 0.8876954204386176 0.11031346922142073
  0.0676733746002095 0.7630334557324439 0.07952138721153451
  0.06905748773094217 0.881759828343115 0.11096069210322779
  0.02348626683542071 0.7715863236169466 0.1423091800660853
  0.0453524543667131 0.8800619262571346 0.1436315070328889
  0.04270953626229305 0.7082050990424413 0.1398770187975632
  0.13648440898802328 0.09527369469876817 0.1726198376111895
  0.024420228384348583 0.7103420194480659 0.1727660109094646
  0.04540741910698031 0.8262180644666742 0.17588437460600045
  0.06444990318049318 0.7582194663018869 0.17155466737283287
  0.10117770044433146 0.9041638558019737 0.2085026754247998
  0.21052618403796247 0.1370229192676088 0.23318566098631197
  0.16529092733829853 0.7456398314854169 0.24168672104618244
  0.004225288713797599 0.7157448212911032 0.20415537325758057
  0.17053747497476476 0.5461833843916765 0.37936708000022235
  0.9839475408037422 0.12411001828952196 0.3354677195413943
  0.9369191794222153 0.11195617948973725 0.43197999318400604
  0.9683987290165057 0.45391100146136604 0.30260579655880315
  0.7157575405861839 0.9008769205963684 0.41450145638840546
  0.6357165541468653 0.583856792330187 0.33283118634658015
  0.13465140655704305 0.2473761455770239 0.3727419106015492
  0.6085260148247946 0.9525702687452865 0.3717511804687957
  0.08767841378074094 0.08249596990113679 0.5074988035900868
  0.5302630898505855 0.045759275373691795 0.4842234127527054
  0.1706181430033287 0.4424994965011202 0.34955990826028804
  0.11887884406378839 0.838737851956085 0.24741048843882574
  0.31371452804794003 0.23648561474949373 0.3656308503317579
  0.08587450888642141 0.5791797164665352 0.2653140105645965
  0.1237900431247365 0.30997117136890595 0.5708919975216604
  0.0615871451916169 0.478418753451076 0.48816061761087504
  0.6966255791726409 0.32124500670760836 0.4804567434091901
  0.7367542689608527 0.2681312874560688 0.3420617594413607
  0.36638660174589127 0.33696457659348883 0.4272916199874782
  0.2929592804278594 0.27541814303250034 0.32212669916085884
  0.20250022330890974 0.20073741718519872 0.34098034772541796
  0.4720441827331802 0.9052323768746108 0.07759000483525125
  0.4476563832765918 0.6658121911103214 0.035674676209214794
  0.9254035657659384 0.01888685695704634 0.9829786607984488
  0.21870685087757563 0.23188529964719307 0.9276468803526015
  0.6859198203032401 0.6874663376621548 0.9378492351896185
  0.23676571660504514 0.521374112992596 0.03080047343997239
  0.9900550414103069 0.01332771024002469 0.980105499499317
  0.9016010297129656 0.7883564764754472 0.9424848235839914
  0.48839567526497984 0.1701831095241814 0.9636082186412114
  0.24989565825101467 0.6218321814959554 0.7965375525386142
  0.32183639340824904 0.4814919882812693 0.9769911961721776
  0.7447398194542739 0.8694310619833115 0.9451457189951846
  0.9618391982176249 0.2898000720748898 0.046758807933511774
  0.12392174785360051 0.9737208502190304 0.8005356629377318
  0.8747746483559837 0.5996650988913462 0.9201554988160018
  0.8907171321287207 0.33808245521513536 0.9812098285436733
  0.047050453082766806 0.939534533627084 0.11356068197347317
  0.1657201873648966 0.45587189390494454 0.9605670019632097
  0.1327540020043316 0.039601054257335205 0.11722475931690277
  0.0024321435748795362 0.9391336965379747 0.0810945096613972
  0.06674613978398995 0.9919563366619794 0.14588365859149816
  0.11021574372384886 0.14839801086758456 0.1749626707529879
  0.10991503017938742 0.04060165634243361 0.1461692379057208
  0.13504189091401267 0.2207245754612274 0.10707099356699759
  0.06518566535211247 0.9281859313480273 0.17598047001505168
  0.06773431864394217 0.09751045492725696 0.1779294473253866
  0.08885362095123962 0.043166812227597065 0.1769739070607363
  0.10688965972546677 0.08084501948747076 0.40402570334535537
  0.10857452619852591 0.9814877078161715 0.1751954652650557
  0.01685366909443512 0.5439270344575599 0.5350768325313257
  0.08646934406209246 0.9780382638374581 0.20408905389077056
  0.0646391165218024 0.032737034588840884 0.21151952988642236
  0.12322863902758106 0.9027476322012687 0.2800748067774524
  0.05745840954385524 0.21619611836149127 0.336413785610786
  0.13565813523221137 0.19412920546001658 0.20882344460712576
  0.9981572526961595 0.9645025235256801 0.2727214778003347
  0.02846821770337932 0.8444066912006368 0.3527378240413063
  0.6015729119105437 0.6864763376821309 0.4047470956414724
  0.019654729998984505 0.6274494194418815 0.2754040285149762
  0.12268093838826315 0.08837828694995924 0.20855139985755816
  0.7516555487840769 0.42616394210206865 0.27041654143957056
  0.147646188780058 0.8810150322713675 0.4311990488034066
  0.32220242990446835 0.9744451569289965 0.26296441014047056
  0.9144017373561198 0.3467682150145591 0.5294884107852335
  0.23777319770607958 0.3466150672830898 0.3431079812892002
  0.4882024674090945 0.19277047904277128 0.3264888893491987
  0.28826572961758407 0.6027514955780778 0.6093206869468956
  0.8950404370538191 0.5639444330929265 0.531258731842121
  0.10150669080917073 0.6755329092892641 0.3628630318597892
  0.5799781721461262 0.5160973260733415 0.40520591738328043
  0.7871180593989391 0.1551152247163575 0.4074851380711998
  0.8527334761734416 0.520444628779925 0.39796492529280003
  0.2894260257963687 0.9866378247855628 0.03247239821181732
  0.7888626883327178 0.18716104406895948 0.7479362843186033
  0.12944647335112291 0.01593585896585665 0.04490416653882295
  0.523691293359542 0.1876511156381744 0.8706704235240125
  0.6075404081945519 0.7785108517659638 0.9482234789977552
  0.5116192478748831 0.02019479740876098 0.03981476419156439
  0.9652174495625027 0.6288210570016587 0.9646111298821545
  0.1720008378164221 0.8418104557897709 0.8610243392943202
  0.1975976832697182 0.4471269896421645 0.9638667288261238
  0.24103807959692516 0.12462474760017023 0.007446758076931888
  0.7986944092369462 0.46244751782398474 0.9732407683062484
  0.7886087499900922 0.30746036017502726 0.012590853599961715
  0.13537501437403857 0.6509860210144541 0.047498336546266624
  0.895578204028618 0.29013227264885855 0.04370432738214802
  0.02647889193255042 0.4496802081205608 0.0515243281485737
  0.9850514498341294 0.5936526393663442 0.981536417588801
  0.004581212509845495 0.3903415929534432 0.10866441786384294
  0.04908744522962264 0.6022522723356631 0.1129560929703297
  0.09531706722011409 0.5496266379065454 0.08057275219394294
  0.07144664983877543 0.5492414879673607 0.11127983713779512
  0.04637449650323628 0.4360374913130903 0.1106488557335742
  0.04840873347058728 0.5471955552802052 0.14341224708547626
  0.0672825186242005 0.48554675592803254 0.14379121489581914
  0.09369532374483544 0.6019364037763116 0.14267867368116963
  0.9830867889481123 0.3377088649644144 0.17202296330989944
  0.04927644803028472 0.48870094264344427 0.17624439402582623
  0.07279783397608729 0.43403871967334284 0.17654621481763502
  0.09129686439117911 0.5419174341539522 0.1720689808297268
  0.8936626006708343 0.9556084430031372 0.2311338209845983
  0.007012130956541138 0.3615580016043892 0.2759169885154046
  0.05212234837263532 0.0754342440297512 0.31150477281953365
  0.005535251815404258 0.38857615255261735 0.20883291880238433
  0.8260225594241472 0.8331369017986924 0.42185207845259215
  0.02243246922289941 0.06499186623111058 0.26707891779562204
  0.14293840213031572 0.6917429183639564 0.21094701780151148
  0.16769222123192332 0.35219223893086427 0.3844736712445929
  0.021713415711608012 0.11339048829717781 0.33823147764396644
  0.17199767865746318 0.8097262086870469 0.2817666273593403
  0.937868535474755 0.5106445850140842 0.23075214626132437
  0.8057035026336719 0.18002564712514899 0.4709839016070832
  0.17337876661646504 0.20631937527586672 0.43493188173528413
  0.9843039891433205 0.9428773155530139 0.3457742905262556
  0.9141967587020657 0.33410695072899876 0.6076180387132836
  0.8621236287296149 0.7866853461403138 0.3627195654744451
  0.9392828090880683 0.5684469377586452 0.27107161436887756
  0.38995325222279603 0.3966278414490333 0.5485153017773778
  0.8091435900157039 0.24847220242687892 0.44968185029641583
  0.7693497829332622 0.5772111269090208 0.5202348289305392
  0.5738382687526444 0.022232908289889754 0.36983874648302956
  0.28737762443721454 0.9379667931443355 0.6069765003486318
  0.7260468245559852 0.20290805119910288 0.527604399385243
  0.9970253580020373 0.6635188960238143 0.5711518611630384
  0.19943650677093208 0.0735744990863488 0.9810648733562172
  0.1130494190167585 0.31624914161104384 0.08425320636060524
  0.4947008119958333 0.6868978429671757 0.980307164512678
  0.14582411441229953 0.7532837188304956 0.9308924689568951
  0.0798665963454505 0.6775362486407668 0.9782620917932919
  0.12351921433000544 0.14268239720421827 0.7968677959161987
  0.505036495072128 0.30009502919186565 0.90148050650489
  0.29132982472454383 0.6672309633426519 0.9407307440046898
  0.28219357768669384 0.8912303611061205 0.002088721690398841
  0.9818879252159737 0.6188482713953719 0.013910148824282579
  0.2532216331566402 0.6432236758261478 0.17305835750601486
  0.48054983296059745 0.14032131407194604 0.8632805512223259
  0.5007122903292965 0.00765997620986405 0.9003043528363615
  0.8109200212941651 0.45904885044375765 0.9221234245168537
  0.06709781089596033 0.04667328271049958 0.11371050960420516
  0.06385815884158098 0.845340696819581 0.04040162291500968
  0.09197497977238876 0.6574269220651567 0.11239968701735838
  0.09244935730287661 0.7633593149673896 0.14477247083331415
  0.04364262829238307 0.7660136619973335 0.11109509033025296
  0.2204134024648256 0.4336054282136191 0.044438036132101184
  0.07213866723134763 0.6566697579071725 0.14558183779968933
  0.11411159422080426 0.7642102719256376 0.1134099069232153
  0.11660193034297997 0.7090322822170266 0.14499985151951988
  0.1111684214794885 0.8185929502263591 0.17413300193963008
  0.04427128330700194 0.7343777972676754 0.2986943073734782
  0.09536867347551402 0.7139346528158839 0.1763337221525499
  0.1168874938742139 0.6501116086808717 0.17513591318057323
  0.13994979684161765 0.7540888000781362 0.1801680643193407
  0.14408099586289547 0.7972684726760565 0.24155543576902797
  0.19812033817550828 0.5228192960466904 0.36186959481410463
  0.07095931104826461 0.5954563522241957 0.1743685033646289
  0.9366214354656862 0.40106290088811236 0.3785550061209162
  0.31884285866140205 0.6398433375917258 0.49689717909574427
  0.08627429826993216 0.8101267824630253 0.20052134264768529
  0.26212240905782047 0.059276594514994854 0.32791272555091555
  0.11566930289781499 0.7670654823907738 0.2084201145804037
  0.5724714923226696 0.8654389620478334 0.3887925508260364
  0.1344688727845356 0.01756416892357764 0.41576558472719216
  0.9206971440197648 0.13880560201707756 0.3945298527833348
  0.9775481263458005 0.662910064141417 0.517730934469345
  0.6255202302105385 0.8567462126063264 0.29366486314764173
  0.44020878698212906 0.7349995008694856 0.4904723212539667
  0.8298049774175326 0.46644979376553497 0.6458518304074854
  0.07402135399114641 0.4704543730410015 0.2542264951991358
  0.07057067788356705 0.16916296258053634 0.5394999282606134
  0.32824514493349244 0.9690352234323405 0.5321641942175473
  0.038478585752881704 0.5435335297511135 0.6343853472316817
  0.7672475024100542 0.13946145886316355 0.571360293458727
  0.6336061574741516 0.18335269390099118 0.4264605977176549
  0.5470978343024387 0.9682236904913386 0.4920017270599934
  0.598242819920397 0.9372894132167237 0.23207582668459348
  0.9189511331073688 0.6095793548601042 0.3051286394105144
  0.7057663505948907 0.48221543469176725 0.039613099178203354
  0.2129344174768786 0.23515622905820213 0.018080283540166508
  0.22524597002736557 0.38809768770045605 0.976647418229938
  0.7283805125875413 0.8671235203115589 0.8372143331530622
  0.2935249901529424 0.9430842977938201 0.8366215192211686
  0.3159285019172371 0.8568001594975442 0.06049341345421766
  0.9508118368190094 0.7671111482423988 0.9494118137744733
  0.4684975001990776 0.7336560429164629 0.9719915279885825
  0.8299557819830794 0.23847545399860923 0.8984582382174052
  0.544315229346825 0.40097335683018126 0.8401242645539094
  0.7280847431153935 0.09942018868707186 0.8616428688990584
  0.7707236241351848 0.3134283843778545 0.8740337628408056
  0.25072888070424576 0.8890076441866305 0.9769736012381259
  0.25010429620931063 0.28718042883203926 0.7976839301649015
  0.7947928974084167 0.3165561926070988 0.9444189128732057
  0.33590292716350884 0.4925067804226246 0.9034159492505698
  0.08919056475807195 0.9876115022515521 0.11396577149360039
  0.2987377928405587 0.9593089006857981 0.9698395322084209
  0.17605969883311726 0.12018904074119359 0.07879390436132269
  0.3297150995318022 0.9553288805412619 0.9473965170973284
  0.08721699404091621 0.8718590865944217 0.17416548489480232
  0.10336950663646048 0.2118559516990564 0.8592892081055359
  0.13046291774836677 0.9196569683284016 0.176087393075827
  0.17309346010943472 0.025000370793385372 0.14342442819366583
  0.18443696836138632 0.7668630274223223 0.31383407139667696
  0.14543582324259904 0.8576182113190076 0.21233160376572857
  0.15961889466834547 0.8648395907899432 0.1789661949779675
  0.1900879955851258 0.979225633960106 0.17944125819736165
  0.9143128684101893 0.4895058194043447 0.43898007002362555
  0.15756654843669077 0.9288450117802122 0.2669530463443296
  0.9286563278057848 0.8139292835706173 0.48437093950744603
  0.1607947339534662 0.9735695364782012 0.205326113100247
  0.03731029312462064 0.9833327990103953 0.2755028308369584
  0.1877355337391758 0.08434709863919815 0.20371820681922073
  0.09166401372901871 0.9566520627583824 0.29399375306876074
  0.12273838595689893 0.16508653771792645 0.3382044085146562
  0.3710456288050045 0.04653312222448213 0.4548358125170793
  0.7038737165890622 0.3211715617907971 0.5558659238415645
  0.5503838438200731 0.06301467835434862 0.38237175335365536
  0.018299510227621565 0.8667131544679071 0.5311423345860871
  0.6408491258604153 0.0973131764561543 0.5332104160653869
  0.6937429994894313 0.7820582650519673 0.47777825306394517
  0.09409201094276459 0.39031940536543014 0.33629197452889015
  0.08258304421022808 0.04569893048504487 0.3457431610275489
  0.1636342084995761 0.6237482664108308 0.6078156433572481
  0.17095199782512957 0.5461402351011598 0.338307271206035
  0.0996593009033502 0.2549552759366626 0.536435702822698
  0.990209344690216 0.771996248729587 0.27483422334299634
  0.33148264402413974 0.554634105246371 0.5592468580924094
  0.7488560874568665 0.5942355460564425 0.22666741464841414
  0.10135215199852717 0.5328827821136657 0.6338114816903053
  0.6150982758440731 0.4784972389919365 0.26497158607882243
  0.7274588296722604 0.0244161816899475 0.9796399104751814
  0.256312545097894 0.6904902437000997 0.9276509407219979
  0.2585540714275628 0.722979735993301 0.019047869567359852
  0.4190548413820979 0.34317747523642966 0.07430841428897486
  0.7875930169982005 0.12541906939506886 0.011045368731124761
  0.40220173480198723 0.7207686399577836 0.006704075910612396
  0.14931033127060928 0.9882249869902824 0.9118547503130267
  0.43805527843428244 0.425319070969588 0.7969124599795606
  0.900108812930996 0.9926667963501329 0.8826390390485205
  0.6230635183952662 0.22200747155003217 0.9426675402068352
  0.13919949296613449 0.6815320191048131 0.909333260917781
  0.6460757869138578 0.6334276503645472 0.9113214884656156
  0.4259559107570974 0.6220634191209129 0.10438614197636473
  0.9561547631532429 0.4481375590656456 0.8721768205701255
  0.16130943893252814 0.6610292401204506 0.9333530528111931
  0.29273017031004506 0.5153905343019243 0.8592161214563984
  0.08969027780783667 0.15576390681704236 0.11217623135490264
  0.13894882902855363 0.5719505421972239 0.8773889814188057
  0.2931212012415663 0.5033269769596731 0.034298481675083876
  0.10774653673377413 0.318270210746593 0.05038959024788983
  0.0888026345036116 0.7902051010431763 0.9709683149006567
  0.150246368656413 0.14592656506032 0.11138621881598425
  0.155032148173103 0.9135168324560842 0.9392581833702147
  0.22538667498138856 0.25210407974874655 0.1462829282488237
  0.15394544954628503 0.02604684193993761 0.17608062579349948
  0.18518836654014004 0.1369733063346631 0.17590196954005208
  0.21081291607223593 0.08638651199215193 0.17310843539523876
  0.22732635708493523 0.19595269331540222 0.17517245650514202
  0.12877302744183708 0.007518915646163894 0.20844447679678285
  0.15476735267716105 0.9693788041394582 0.3089521539255811
  0.19473078327581148 0.1524909167340764 0.27554478798738924
  0.16239617062058784 0.19195757718907694 0.1807608782512342
  0.8315371045284022 0.24498256361968698 0.5347790721089133
  0.1363416888692019 0.10460513765644779 0.4274039568741156
  0.1616399943340946 0.410236462203751 0.23815419967120044
  0.1416091198483389 0.47434177371589753 0.2313449601932179
  0.9256684422263172 0.8979163755641866 0.2771066767485882
  0.8672227861634756 0.0929307124525725 0.4719962870432849
  0.017324712509212154 0.7696830026532824 0.5592630995699955
  0.2270999908020929 0.45567936150851096 0.5332956838227141
  0.2745304097954396 0.9711902317673383 0.32917685388970225
  0.01762184317200744 0.9149919157696523 0.3346475249232951
  0.828306346793964 0.9680457113474817 0.560701823792833
  0.2798348777773152 0.45069199162865153 0.34395389158014417
  0.935280750344774 0.5073768175844587 0.5682676454350358
  0.7254545362468583 0.36303766501609375 0.6079834719589714
  0.9445084886185315 0.9694691501224385 0.3945460942609209
  0.9028220017390831 0.8495024699167668 0.3618587671623806
  0.19351888075380014 0.06611348692345728 0.42637803687325876
  0.1589967443830487 0.840693694166629 0.49135612832594494
  0.1085756676136418 0.31893801052122217 0.4351159518145935
  0.7030391006203396 0.20423075965531567 0.42968588447496603
  0.9901718503454756 0.4518425223058684 0.011464791355221762
  0.7688900064795431 0.8116231689489986 0.7868427438761637
  0.9447613269503683 0.2990406462961493 0.9836135672264197
  0.562036518310902 0.736524288138323 0.7980317684765377
  0.12101327408866148 0.44420020922470543 0.024893312696252484
  0.45813492658169525 0.6353028628491172 0.8976123279264613
  0.14067485744260455 0.4969708734457637 0.8953019777398351
  0.8727667123370458 0.1188357247960716 0.8232182398432196
  0.979750603473184 0.024303101194671325 0.9035526483535862
  0.23004809787908317 0.10718940124429292 0.8386611781146927
  0.6193039178374201 0.7809995906843987 0.002960591276351296
  0.6461442625914314 0.42942683212827465 0.9023629601204027
  0.13086109846657942 0.3576658964320099 0.9066886069841738
  0.3626469454028089 0.9958602682111743 0.881272048018355
  0.13913646248949302 0.11540079285636637 0.8852417358316969
  0.10016340001117233 0.5318601950085527 0.8587816619309695
  0.001604832902416389 0.05752082989814314 0.10965447126836375
  0.023987709619744484 0.16438121876413023 0.10883265250250587
  0.04856595708017369 0.9912489629169129 0.08278538282375927
  0.1120252270037958 0.2674639689556234 0.11481777233863917
  0.0017096385977397638 0.9982396492905055 0.14025057278204406
  0.046113106944987464 0.21535004399792687 0.1415877877699683
  0.318576447524915 0.631340804425845 0.08232696711889091
  0.0902193206284807 0.2661822126519728 0.144427339434609
  0.044722925483304234 0.15658000868747027 0.1730123399861875
  0.06901023397985954 0.2029800013015958 0.2078381283002342
  0.06677190036862732 0.15622088417385768 0.14290334745444436
  0.09482688242796708 0.1418789484574406 0.20940543088729519
  0.04188980498866861 0.09949004825424576 0.20356120586922152
  0.38119791842592493 0.8547324613131082 0.3081373731333439
  0.023045373743444106 0.9948762207566997 0.2080722762687675
  0.07103741018161769 0.13898669633878083 0.23809058721732146
  0.12460511122390636 0.03680670080348061 0.4786810085264405
  0.08443463637202729 0.23046404954093788 0.4311503243706482
  0.9331690321835324 0.2383099165005247 0.3955611866100537
  0.2975516117797268 0.9453584502759933 0.4271603347103237
  0.9676282150907438 0.5207721225317452 0.32612751647290744
  0.3823902520815373 0.7260814458317704 0.2973706269502091
  0.02265532794531113 0.15753195481506507 0.2024581388498306
  0.6008901589575 0.19048030336018787 0.4313966534473711
  0.10675003106603653 0.2797858796992829 0.40071108846132053
  0.7446613418246286 0.9009248473181815 0.38692613436009765
  0.03796722650955527 0.8759629931298932 0.6354383363618488
  0.8921443546711795 0.42933179613217853 0.33316007626769917
  0.8478462459757746 0.3002453499851143 0.3843166702945937
  0.5263726816089969 0.38835996171757325 0.44449269820764914
  0.6902263250698285 0.033720881959963686 0.29293264319980067
  0.1822585805917734 0.8833771984587198 0.3764124845360133
  0.5857357984820094 0.5735762080041094 0.4369945493887219
  0.6981314774452332 0.1362191678808413 0.2344524962380297
  0.126657128854575 0.9630625510945522 0.46222568481876575
  0.7660223843647279 0.40926895705409233 0.532643317806338
  0.7908211467675111 0.8540213341641707 0.8390239044474495
  0.0716148640051228 0.6052183090734716 0.08086266256885526
  0.3324117365329914 0.8202125696782618 0.759880537626732
  0.15567790028731823 0.48608123072710613 0.045323873388777705
  0.8538330174184213 0.01387580269233402 0.8336642168440285
  0.5378331066127031 0.8492645628425602 0.010444718286295925
  0.49149932941619373 0.5098065757906012 0.07103426775325879
  0.8763554383161225 0.13841725883625766 0.9153642629280951
  0.5669677060618192 0.6603179184824226 0.8893278209010724
  0.5237185330863144 0.1252640700760682 0.8999917043928286
  0.6277903681505297 0.7068837233020883 0.9484143163593921
  0.37536519943600344 0.5376225336733419 0.8222802945126211
  0.9994264445827977 0.9612209261113431 0.9549312092408246
  0.9496362945374821 0.6843669492332934 0.9690179841338561
  0.09042227880134358 0.320980971642516 0.1133485953453277
  0.5201170721312217 0.6901275890492541 0.040660268445568706
  0.04616479059610601 0.2707472155036493 0.11054193267279888
  0.0034399479215930823 0.3329693582930222 0.14003537320402795
  0.07281340132164676 0.6556909431073823 0.9001378776911038
  0.3191763314679503 0.7023252825036934 0.1391434453932566
  0.09084313629466663 0.42907260500091143 0.14439485647943676
  0.06745364516781764 0.3778027489028132 0.11042025693654951
  0.1179930458728904 0.3776182759785713 0.1440998029699555
  0.13353853369408164 0.4852506616034189 0.13952782702946154
  0.06810842259840519 0.2646846103856728 0.17456340109566237
  0.09455251503934588 0.3739968656845858 0.17385418990773494
  0.11099489709521154 0.3063919813230472 0.17999211497882436
  0.14632607375199366 0.43079856222810636 0.17326814325816897
  0.09103070161733304 0.30940336748471803 0.208725995741609
  0.048265444640064104 0.4299426818335138 0.20623292893213896
  0.04611296653863877 0.2591954512838713 0.20337984270284312
  0.9901895117746655 0.20492252348331105 0.3050677338695664
  0.9660854389897803 0.44190822024194815 0.23532412220181834
  0.12165979772944625 0.47497281473460673 0.5686195441160685
  0.12069203948141424 0.4200968937239414 0.20363970634422113
  0.9701619687652246 0.14772518388447667 0.2704192483525016
  0.5573840000562734 0.16915842266646638 0.2621144394801301
  0.8991738368259143 0.34219145418509417 0.3981814783272817
  0.9516693262158819 0.03967085983959337 0.524541527403793
  0.7096303835751032 0.9703955265971296 0.34462926635643387
  0.12169659280439742 0.2427241853396525 0.5980748171749701
  0.9356268435149729 0.0022341678055849694 0.23462438520914947
  0.7875167655590081 0.5846244663526174 0.6340266812683215
  0.5569734468161761 0.7240915277693974 0.4933497696996416
  0.009421609237496029 0.4196179664936201 0.3846509740415748
  0.14441259357947575 0.9106899391042874 0.5679089794716755
  0.4960842448405951 0.9129948370410824 0.5700907512940783
  0.5392522898965275 0.7158477723523355 0.39585082629367285
  0.5791984318833473 0.7803456707483174 0.5320004259852207
  0.5304055869923004 0.5556144577971265 0.43666295255467186
  0.9397324818717784 0.395021130681077 0.27240747590033626
  0.42715293155313966 0.16708674069920149 0.4130694994478955
  0.15722200863533203 0.2174242484181258 0.8626958580292254
  0.44846073347082516 0.1307757145347238 0.07602229621125062
  0.0697800984025707 0.9590162312579404 0.8913918420109758
  0.3121530748802948 0.1180452110637889 0.8750393809946797
  0.5416099906721865 0.7960596431309753 0.8625361501662953
  0.5557777977731724 0.05360821223985282 0.0413195370899188
  0.9143798932672611 0.564820254616892 0.8607468807188906
  0.853793971242502 0.7451801143846979 0.04750415640906832
  0.7458905996465676 0.7541015296310174 0.009522324170485968
  0.6000123430266753 0.6666991064869914 0.010578223232053865
  0.8133606697681874 0.137782422702634 0.9137685377552583
  0.47357612213880895 0.40831958646887234 0.07376337737031385
  0.06754010789227151 0.520706325060065 0.016929168816249958
  0.8555578383613883 0.9648411914023401 0.010380808071994527
  0.16158792796017635 0.9836620149365888 0.042591109439265765
  0.17266983084529217 0.1029266490672482 0.919726453116435
  0.08876321374668382 0.48459991685462445 0.1141208776045479
  0.10761864636487779 0.8739663920343386 0.13883079694972372
  0.17972607590597278 0.6545390883719459 0.08071202286424396
  0.182174613246017 0.7049502980645651 0.1437600853971124
  0.111582694883602 0.5356773059952727 0.14364910196694056
  0.2266161176701137 0.7106015637065846 0.08231383859117547
  0.15843524601078005 0.5910788979903615 0.1423091800660853
  0.1613288356085562 0.6957711564102435 0.17697120014780526
  0.12241522967301996 0.4857485980771892 0.17393539729566557
  0.1371819481677227 0.5905298000630248 0.17246554357412133
  0.17005154761694377 0.5405421976977899 0.17280526114696443
  0.18558124409447227 0.6433875360591838 0.1736376368732533
  0.12395216762861314 0.5909166941436588 0.20707342539722087
  0.1670604210472761 0.6405897944048731 0.208460718274369
  0.07954457743855144 0.5401345840145709 0.20722907289075457
  0.1966292751189003 0.738070257841154 0.3464388376508212
  0.21803340945147623 0.977018561593513 0.38859088581267537
  0.4178693351259514 0.47361199805715404 0.4808127024596193
  0.2110958143346258 0.535781552295965 0.2019600668705228
  0.1150482149905982 0.6889127373350504 0.2335673357095859
  0.00587267956992109 0.6555623156672667 0.2316630224626128
  0.2701222112321994 0.966515315335437 0.23819751027809677
  0.34841002435635743 0.8964440601734667 0.517863573202965
  0.3582457833436959 0.8259663695073957 0.345236968309448
  0.2477548886243164 0.011551569275784327 0.2396808985642961
  0.8302040929352033 0.8812883884071054 0.34942862298313354
  0.8095528265439029 0.4165432778145246 0.46168565568902714
  0.08084709137235355 0.591981833176819 0.6450492307234378
  0.12114961438529268 0.9361243404278637 0.3429009024499771
  0.6699437843176091 0.5448056621680898 0.4192439678435537
  0.1674162297855317 0.14450043496551837 0.50517356538234
  0.7483479467788491 0.7138558859799147 0.3229509541483546
  0.6800908304576962 0.38929333183666814 0.4378188043762177
  0.20457915685125766 0.7300203542798626 0.5667761364100434
  0.42798904281772776 0.9032740089397817 0.45735594845585953
  0.9552361544386389 0.28220379029028697 0.554299974710969
  0.41702054566684094 0.9187174776319937 0.8351936226500551
  0.24985571127447043 0.36927726252188486 0.13934240349368662
  0.14966654544085364 0.19158715077631847 0.07143759777998086
  0.4344582532535238 0.8168255367472663 0.009017633789061816
  0.6040923994850967 0.22049120203489572 0.8366918989573752
  0.5364508631321107 0.6163852434116425 0.046418142941142826
  0.2696002846169325 0.3949612035217271 0.7866275442981475
  0.6639454389836686 0.5083869837746596 0.9726249456144413
  0.32375723138398055 0.7509095643206811 0.9752059870941694
  0.15343045935065397 0.30234225693426886 0.9565688915640921
  0.06293755999328118 0.9830735000143364 0.05083677226409444
  0.8539834359460496 0.9094965698595475 0.0434912933344767
  0.9605938549831479 0.34182984195816846 0.015392183654016409
  0.028938930056809628 0.9889251516863659 0.02430185222082446
  0.09115778687569871 0.3454796805924388 0.8887999728795234
  0.24524064297593 0.16499557648454297 0.07732350925719227
  0.13853621584770312 0.8154821617063341 0.14911841954406785
  0.22614955468100142 0.820943755612479 0.11106490825107208
  0.382119917171869 0.5331365834933167 0.06728018555487274
  0.3131590674994633 0.8807021125200101 0.824112874566922
  0.16098916769031482 0.7599393559740355 0.14730072751088746
  0.18539425398927764 0.8719778653095831 0.14629240244408226
  0.208602541492544 0.8196799953828261 0.14380204254754322
  0.20719057620335773 0.9172617954778657 0.17812840542581662
  0.20369602181240598 0.7517329555135756 0.1742020282193711
  0.1851184937167171 0.8099973654405427 0.17675464711332362