lammps to VASP
1.0
 75.3131043893 0.0000000000 0.0000000000
 -13.8787083727 26.5312781730 0.0000000000
 -0.5141438131 0.0601992489 71.8860595918
  Li   C   O   F
  6276   1344   4032   3588
Direct configuration=     1
  0.364654093698901 0.3520265855632011 0.9253393547745152
  0.10437627926717512 0.8809292165025463 0.7777822336828013
  0.12393778586904872 0.9870792713006196 0.762887829871002
  0.6282823003330464 0.6014103459028022 0.026824533309358908
  0.9433562444773271 0.5929281446798698 0.883041863198764
  0.29352267146562816 0.5852723015788502 0.8036273003139227
  0.24095478086566208 0.8736626562840697 0.09490212759935374
  0.8471699855326019 0.5612218658464758 0.9595893889811378
  0.11132401872712079 0.946979762528618 0.06173658738840478
  0.04655188813531128 0.7875653116573434 0.06122397061389765
  0.06796074728755327 0.8950801381677336 0.06112812449242263
  0.08983183675654123 0.8377650704438737 0.0618258953854831
  0.04600233064170903 0.7295900879242396 0.09372916026077999
  0.06769135543478821 0.8383741664097195 0.09405064122845597
  0.08939033721314399 0.7803293138975113 0.09411922198010644
  0.11119272785762098 0.8893136010168231 0.09424483743394091
  0.023907843130039668 0.7305492009583423 0.12617981916801327
  0.04561998574710052 0.8392581915257428 0.12637137230193354
  0.0673932960303063 0.7814922225789277 0.1264542812836449
  0.08915661615123592 0.8902501917156584 0.1266547373954671
  0.04547875562262977 0.782851017130315 0.15883747231146544
  0.06722705640369184 0.8915637727305942 0.15903083386277206
  0.08897999469273088 0.8336961400051269 0.15906839330079564
  0.11073892827769968 0.9424503308522156 0.15927288357447963
  0.045387906530736793 0.726583353168681 0.1912804802220643
  0.06714375290776954 0.8352998968433564 0.19146549523158787
  0.08886558936353929 0.777315471398807 0.19148079722485672
  0.11063590462092886 0.8860357494895498 0.19168111422764922
  0.06708226705267463 0.77911519806651 0.22388902787802634
  0.08884265195682234 0.8878053672571644 0.22406986961665845
  0.023639302187601637 0.7284545955759313 0.22373183467444616
  0.045373397037606615 0.8371297387238922 0.2238904189683235
  0.04534691752780481 0.7811183255193539 0.25635568432367706
  0.06709142893722679 0.8897595685364579 0.25650453098547427
  0.08876809519446192 0.8316319822015502 0.25649062008250256
  0.11054626978255576 0.9402957863773006 0.25666311527935165
  0.0020209769835958166 0.6746986872848851 0.28873191990001174
  0.023660618996507 0.783305948105453 0.2889071972774552
  0.045362682147645 0.7251597780686321 0.2887778258798184
  0.06702252358783511 0.8337405728703827 0.2889892716049882
  0.02378545115598169 0.7274077668044051 0.32130290811795026
  0.045339234363019926 0.8361278460436938 0.3215908638094644
  0.06687814260579865 0.7777703613411052 0.3215686063647097
  0.08861712705172699 0.8863176979041187 0.32157556181619557
  0.0448537478824668 0.7804692576125781 0.35470576833359635
  0.06686789701049899 0.8888027161078732 0.35428844124444536
  0.08806160029678772 0.8302299992538569 0.3544386789965397
  0.11019756955713786 0.9380807242468421 0.35414655003413403
  0.04494456064006773 0.7276451569955734 0.3861165872436951
  0.7590329098704822 0.149165338540696 0.5990591255732907
  0.09012615140421203 0.2768840512968406 0.3870847860905254
  0.7590530351905093 0.48225145712924816 0.5988852392861443
  0.2379368041089831 0.43273494040895266 0.8984982674906199
  0.24090991185151836 0.9295063834327493 0.061588436271756176
  0.3941277754694834 0.07746057509915531 0.02943449692490927
  0.8399259790297029 0.056414101334663666 0.9623340101374542
  0.8399822298586166 0.988541122814317 0.9392224359402718
  0.7569047011663055 0.12596727207909675 0.8787030525618907
  0.1946237440957339 0.21833331698914973 0.8838653886546886
  0.006803765670768779 0.07798604425588922 0.9641410364334781
  0.1549263282542604 0.16401424881767745 0.06199978167262936
  0.08920019617669601 0.0038200307199979687 0.06147422775835852
  0.11115059919143626 0.11338790462067842 0.061362244989436335
  0.08627625884164546 0.8431946717947735 0.8184090258116512
  0.08928146627297978 0.9469023779529732 0.09418070817124136
  0.11099916619782073 0.0557478635904669 0.09431884343775035
  0.1327744721907197 0.9976716190820765 0.09463156053655417
  0.15447109462497888 0.10637971021594603 0.0946908209832136
  0.06731675219923493 0.9478992268535505 0.12661175270528455
  0.08906828016179824 0.05672835180585237 0.12681749496023598
  0.11083944746899795 0.9989746930233819 0.12685714103370535
  0.13257269464003568 0.10761047565814003 0.12702045503459308
  0.08896041675182642 0.0003130917941034721 0.15921584887229565
  0.11072153171950082 0.10908735780081691 0.1593535668117155
  0.13248047849701367 0.05114491626611142 0.15947041839667778
  0.15424243378768726 0.1598457716056568 0.15959283434282875
  0.08890169202608812 0.9440202317488 0.1916407726090313
  0.11066216781166839 0.052736408555479945 0.19179101036112567
  0.13240790754562073 0.9947371882122242 0.19187864904984736
  0.15418880139610228 0.10341753613075415 0.19203862443402192
  0.11061625245357302 0.996488045521078 0.22422984500083298
  0.1323997291141828 0.10513907624321929 0.2243536520372811
  0.0888538547079523 0.9984009094011026 0.2566102538480592
  0.08888272930575934 0.05448691104532325 0.22413246868003106
  0.06710100561909327 0.0004889381129342578 0.2890226577721203
  0.11063227754950843 0.10699965960361464 0.25668537272410635
  0.13234611730894363 0.048948622758216154 0.25682169957322903
  0.15415489463882476 0.1574836455757268 0.2569399422484885
  0.045382402864195044 0.8919134140902191 0.2889920537855825
  0.11066231712337372 0.16165698738856046 0.32149070530806817
  0.08878550721954162 0.9423819042659105 0.2890991677384646
  0.1540834721799057 0.10136998146452632 0.28945250467394584
  0.0670248841364103 0.9446902875587081 0.32158529944827574
  0.08873102211141962 0.05314531873871071 0.3215449578296578
  0.11041450750941365 0.9949401268041328 0.321710497575021
  0.13239889537404465 0.15942078658943354 0.2892521876711533
  0.088382820083501 0.9972295381612262 0.35425227289671896
  0.11045461375185926 0.10580435266400587 0.3539128468642095
  0.13211571421061008 0.047485679503288226 0.3545597038523935
  0.15408308746291022 0.15612739728154917 0.3546654267149784
  0.6078532690853362 0.7273307273748862 0.5197099439324164
  0.3646233864675875 0.005179299089280387 0.6421105880901079
  0.20399083448304872 0.981712718168801 0.7227131420887324
  0.15439027020495766 0.1023632632130901 0.38790831154645006
  0.444184668774994 0.7769945908516248 0.8578241782916661
  0.45643269215713494 0.5707219247115409 0.031858471767728005
  0.11107569619255935 0.8877823210027135 0.9269265888035861
  0.17441388442424913 0.3792216642073618 0.9246716314318736
  0.7251263305489715 0.0833543285861361 0.9603628351863642
  0.15063137325634215 0.10079556199796812 0.8437797306514377
  0.3093454113821131 0.354857482297099 0.7373418476537721
  0.40792556242522465 0.7998322434970843 0.9639365461597941
  0.11144396916210611 0.611232951928876 0.06160415559211421
  0.04621124484865914 0.453465305814332 0.06122717012158113
  0.06757173050656483 0.5605512487331062 0.06077965637298154
  0.08914388857263077 0.5033986619831716 0.061297559290617934
  0.045577166092085224 0.39592297469330007 0.09397830453300313
  0.06743252979583354 0.5047756690470917 0.09395980303205077
  0.08922687235341048 0.4468926094196509 0.09415177349306023
  0.11086196484840188 0.5552666086458508 0.09413981011650456
  0.0236985165958479 0.3971427411045785 0.1261720290623491
  0.045472211248641224 0.5059048600359691 0.12620471968433258
  0.06726317532726893 0.4480857381054601 0.12645734168229866
  0.08902311744917556 0.5569044430030592 0.12646847040467601
  0.04539772805744131 0.4495314380531754 0.1587456603518522
  0.06715252227665496 0.5582633802224737 0.15878878415106448
  0.08893246457610272 0.5003954665798734 0.1589501506255362
  0.11067054774033633 0.6090708054229157 0.15902248732098903
  0.045363476345388766 0.39326740119095116 0.1912512673258237
  0.06711493065049079 0.5019654716367432 0.19127213368028126
  0.08889727634115412 0.44402975773242914 0.1914140248905926
  0.11063935781235473 0.5526787347169397 0.19147662395396522
  0.06712350943282211 0.44578069395058983 0.22373044358414898
  0.06711988737435311 0.5563200367839243 0.2561219811537525
  0.023612503279498664 0.3951048981295866 0.22362472072156406
  0.04535491315082141 0.5037653150902206 0.22362889399245556
  0.04541022343336755 0.4477690226195446 0.25607468408364875
  0.06722968192736269 0.5004067473745034 0.28853160289721924
  0.08890443956359814 0.49827135926776417 0.25621518420366285
  0.11058658143534351 0.6067619346859074 0.25632090706624777
  0.0020282697644627623 0.34149009125502755 0.28856498906435135
  0.023797423148132327 0.4500851398797487 0.2884745681950353
  0.02402967761127114 0.39460545579126133 0.32081602651394076
  0.06742748035594764 0.4447046779396819 0.32087584339671904
  0.0456661582981481 0.33626695064243584 0.3209008830220681
  0.0457063565218351 0.5030695967543103 0.3209440068212804
  0.04552455239680232 0.391946164070674 0.28849682563979
  0.08902601523772498 0.5530141927852706 0.3210441653226766
  0.04604653487126032 0.44809512526110007 0.3532200838962188
  0.06777492843746659 0.5565317964789459 0.3538265992657849
  0.08909021257249285 0.4976435358847359 0.35350803958773297
  0.11071766959694863 0.6057532738882213 0.3536819258748793
  0.8794636378767682 0.12678526621902714 0.4203513194570489
  0.9730334971578858 0.7288483509687353 0.6797701846150943
  0.964239719487587 0.45199307383477627 0.5572499066918462
  0.15389026238128553 0.6556062143861855 0.3543093075989029
  0.7626199155604289 0.42323570325933363 0.030163567349656074
  0.5215245157074707 0.6157435847359228 0.0005925349120795634
  0.7801117866033366 0.33739707902356325 0.9361286511193657
  0.8931001863242152 0.9161787435893088 0.025031835243395924
  0.24055366525901614 0.37438727330068194 0.00045029871137452473
  0.06741377871936398 0.447275000766549 0.028613892758608685
  0.8812975416639766 0.4367619422709996 0.8811972774647165
  0.06799088390386018 0.004207525263284417 0.8581830795883361
  0.15483570309608544 0.829044600836449 0.06124789736700897
  0.0891069075038321 0.6698662233679915 0.06134443903363257
  0.11158152798782182 0.7799169702258283 0.06156075357484251
  0.13346372816707364 0.7211674963092475 0.06153807880299863
  0.08921354509319492 0.6134289138745853 0.09380260982847057
  0.11101223360236205 0.722171886638522 0.09396773224674464
  0.13264522663510808 0.6640252412520355 0.09404785904786163
  0.15436804272567395 0.7728322915401957 0.09421200770292769
  0.06730291380564755 0.6147385007040146 0.12627789103396372
  0.08907821513245773 0.7234965528533366 0.12644176147097036
  0.11075625756364986 0.6655082828353273 0.1264903105223416
  0.1325167301969938 0.774213508054212 0.1266801943479053
  0.08891873936917738 0.6669876199880882 0.15890424464572958
  0.11068268028819139 0.7757079454244151 0.15908369529406452
  0.13239465713374352 0.717693259573908 0.15914629435743718
  0.15415821246358566 0.8263344205253326 0.15933130936696077
  0.08885430323842869 0.6106294746639472 0.19135699018840863
  0.11059262140892631 0.7192895538927471 0.1915100101210973
  0.13235986367753755 0.6612936537519792 0.1915990399001162
  0.15408203292351327 0.7698896197895485 0.19176875291637094
  0.08885497133019092 0.5543919921989642 0.2237874782863329
  0.13227603712560676 0.7715802182653857 0.224099082512899
  0.06708315240492937 0.6123991650281244 0.22371375050058293
  0.08880399443490718 0.7210403733251332 0.22387789915564896
  0.08879235624697956 0.6648595289065011 0.25626387236406384
  0.11046727716409827 0.7734290510198593 0.2564600160959648
  0.1322387910212646 0.7152599252778566 0.2564808824504224
  0.15393095632979129 0.8238144118794043 0.2566589420084601
  0.045465976044107875 0.558545745278184 0.28849960782038436
  0.06707424610682287 0.6669909490256241 0.2886679297463419
  0.08885712632798483 0.6087993410342821 0.28863037030831834
  0.11042986614504549 0.7172369654765575 0.28881677640813913
  0.06724123097254227 0.6111758118186711 0.32100938806524737
  0.08865373267505483 0.7195529470127534 0.32127647740230403
  0.11045579727443446 0.6611880944819428 0.3211791010815021
  0.13195150638094844 0.7695127111231602 0.3213362942850823
  0.08873689053228566 0.6639784758423085 0.3538641587038085
  0.11004932033333496 0.7713190575588538 0.3541493322147284
  0.13192690265223087 0.7132904440832075 0.35370557440993117
  0.15310425332561783 0.8215282474941674 0.353917020135101
  0.19025640364938826 0.8770839482291682 0.45418819984541203
  0.8747319588905698 0.031024880973810603 0.7596980598195912
  0.7483037840440135 0.4481825386105098 0.4525703618298033
  0.19435843482612009 0.09080146737693452 0.4209522704654263
  0.11041597160989942 0.16786086663968433 0.022868272504207417
  0.00321844296233619 0.1219893664215571 0.030003452856451802
  0.1979830228232896 0.3230411148771846 0.001600018148901967
  0.089968370007254 0.5615960153964548 0.028902265777212027
  0.9138752461726033 0.35041134154607123 0.029223329417798868
  0.8014374044091815 0.6126944798713462 0.9208141380378212
  0.9993896604696699 0.6756121900417779 0.7615551653663132
  0.21924382207496235 0.3791599827056198 0.029917761694146127
  0.1982111297914568 0.04670556907384386 0.06298342162175827
  0.13345507158419884 0.8881701999074871 0.0616180664950859
  0.132971714562796 0.054404860673114466 0.062284955183549214
  0.17680764840829125 0.9381967892762092 0.06212706643482041
  0.1328818540307123 0.8310729513287052 0.09422619682395883
  0.1545894311071773 0.9397516729679426 0.09446880297178527
  0.1761673030437935 0.8812435736934475 0.09438005141082582
  0.1979272701044593 0.9898989823261607 0.09493036673238628
  0.11088115759634544 0.8323223077324685 0.12666809186231992
  0.13263196316416784 0.9410047356960601 0.12693838070706007
  0.1543386162541283 0.8829563394126702 0.1269076376114926
  0.17607773160570037 0.9915217868530289 0.12723843888415964
  0.13246810365849915 0.88441684666648 0.15931461628339474
  0.15423045022468634 0.993125738439428 0.15954971054361647
  0.17594353728347945 0.9349754299708877 0.15958309671074855
  0.19772566024062985 0.04362505850416386 0.1598265375127533
  0.13235013192758213 0.8279570735463312 0.1917061538529983
  0.15412986486258154 0.9366433820660268 0.19192733721024832
  0.17584097384440384 0.878496811169926 0.1919746342803521
  0.19762885888472356 0.9871341209195086 0.19219581763760213
  0.1540345278349916 0.8802251104765055 0.22430079060598865
  0.17582732413606708 0.988881269063273 0.22452058287294152
  0.11054933779570097 0.8297116558021354 0.2240768250681443
  0.13232963158303104 0.9384017808035776 0.22427714207093674
  0.13222106209214216 0.8820815004415378 0.2566533776472714
  0.15402872329130654 0.9907602801580252 0.25687038773362997
  0.17570475546015707 0.9324328980427803 0.25687038773362997
  0.19751756162124706 0.04107458929550925 0.2571235661677149
  0.08866845377597472 0.7754925193713988 0.28891137054834665
  0.11040597692405746 0.8840809660748769 0.2890727370228184
  0.13206379357496587 0.8257499631729668 0.2890073557788514
  0.15385779769343008 0.934398637145738 0.28920349951075236
  0.11014666516008505 0.8277868771272654 0.32153382910728046
  0.13198376306827225 0.9364698741847796 0.32155330437144086
  0.15357119791101487 0.877958012718141 0.3214614924118276
  0.17538700366796653 0.9867043275610704 0.3218148293473088
  0.1315249656689562 0.8800816325860393 0.3539810102887708
  0.15319384619373577 0.9888394726271438 0.35423836199374725
  0.17497620563547847 0.930173685757692 0.3538780696067802
  0.19695860331177398 0.039022449843755296 0.3547308079589454
  0.6908234694592552 0.6550915800610768 0.41998963597978467
  0.17456985058741697 0.04227693028873294 0.3863669834971857
  0.46267326290898697 0.3105386170155679 0.534451327811527
  0.9711911582365348 0.4607701384306317 0.6541490835218171
  0.11179960568894104 0.5614863609889469 0.0008167258065520755
  0.6305220431723572 0.5777859424150309 0.8554996664050951
  0.5250255930999416 0.5394050748040841 0.8421020757530508
  0.7451529252429536 0.26353129223510174 0.9604435184236002
  0.26341182552155656 0.592155947075826 0.025678831340609692
  0.10586010539260564 0.949521951745421 0.8034812358327199
  0.595909705274612 0.8708149170309087 0.9396661937450691
  0.5003419219633868 0.17914796774860317 0.9999241442634224
  0.24133030537014458 0.2633586452660209 0.0629330641530007
  0.17665472593698187 0.10493328516398594 0.06238984339195582
  0.19797012883222193 0.21201259396651964 0.06220830610817514
  0.21976184006935306 0.1558103649358146 0.0628224724743757
  0.1761672431094544 0.048043433765311956 0.09495624101191365
  0.19790738847384545 0.15666260620955358 0.09519745606944292
  0.2197957211366663 0.09870237583300709 0.09518076298587688
  0.24148702649614148 0.20711150950268903 0.09529900566113633
  0.1543331435965338 0.049710521833060316 0.12718293438130254
  0.1760600502257928 0.15828238149668797 0.12734555283704171
  0.197837126029722 0.10012355398542273 0.1274789583965403
  0.21961355169282068 0.2088500201970024 0.12760985999350402
  0.17600446411927345 0.10178980016315191 0.15974446318522026
  0.19777464814089263 0.21041791433113258 0.15986548804107406
  0.2195222119400365 0.15230093969749572 0.15999207725811654
  0.24130313165465814 0.260973570705034 0.1600950179401071
  0.17591857997689253 0.04531305646115473 0.19214017402571534
  0.19771779206720813 0.1539531434864316 0.19230014940988988
  0.2194364288108161 0.09578876927194299 0.19238639700831442
  0.24124625058340562 0.2044296637827812 0.1925227238574371
  0.19763665342263304 0.09750837747074265 0.22472229096603116
  0.2194545504429458 0.20608480712771235 0.22486418217634252
  0.15412331829728393 0.047064724411941906 0.22446633035135188
  0.17592809662381856 0.15566337619040915 0.22461517701314906
  0.1758487637283529 0.0993493013520194 0.25708044236850264
  0.19767782391047548 0.2078273281477964 0.2572348533914885
  0.21934343595448286 0.14962672919330774 0.25733918516377624
  0.24119136367558902 0.258100710943219 0.2574490812972527
  0.132226075589318 0.9927862212792982 0.289249405490559
  0.13231064565130074 0.10341266775990096 0.3217605768257191
  0.17571043287164467 0.043083933592178006 0.2895081482858326
  0.19755058520078078 0.15151643405500995 0.2897933217967525
  0.15389639149919646 0.04527233710754549 0.3218816016815729
  0.1758134364050019 0.1536925017302687 0.32228780004834656
  0.19734124423179714 0.09528661426618544 0.3223350971184503
  0.21920406865195477 0.20337781221122633 0.3227065182277948
  0.17558869104877983 0.09786143129646221 0.35484070409242185
  0.19781470012600946 0.2060866502734744 0.3557810811333088
  0.21856536739025859 0.14700987050326342 0.35598835358758707
  0.24080025603763783 0.25373690814379574 0.3560759922763088
  0.086748506561394 0.5273906593223835 0.5340882532439656
  0.31410314739405754 0.45274112016034956 0.48006247937277413
  0.0881558173572503 0.26263605775346627 0.5598025573871531
  0.5080497310907439 0.3591315042955052 0.6010400381564608
  0.7395196569121762 0.3173914658766666 0.02788621342415906
  0.2401857868937342 0.9854380422264053 0.029388730054132377
  0.6306828699557173 0.24616611564124602 0.8556304288930291
  0.09076359769704256 0.8426576898049017 0.9653679780755821
  0.7797238876004483 0.0011595914916224404 0.9365724089241628
  0.2809197604117093 0.6540683838686276 0.9639615857851431
  0.21347214544720564 0.9237997323660744 0.8440690774332491
  0.04775483551279215 0.8974697963462465 0.9265760340486993
  0.11109010387126615 0.27769014168316164 0.06222013037570109
  0.045977707642279264 0.12032250381319913 0.06179779536148027
  0.0670508264810234 0.22611861338695258 0.06169791507814346
  0.08983851196208492 0.1694055270391436 0.06170904380052082
  0.04574111648615905 0.06257098523397794 0.09421687651896778
  0.06761072924777442 0.1711168915164129 0.09435584643965507
  0.0891635528387353 0.11306909787002328 0.09439173656932205
  0.11096009010392541 0.22188319111016622 0.09444195492904989
  0.023761236824239015 0.06364377999738695 0.1265658467254779
  0.045531268769375945 0.17252875951091273 0.12660437992670953
  0.06729202708000369 0.11458316031488726 0.1267839696840742
  0.08907335543942588 0.223429338557996 0.12681332168934448
  0.045428189762473245 0.11613027780145092 0.15906004675901264
  0.06719108344896015 0.2249089509464201 0.15910595273881925
  0.08896683916459155 0.1670037859832563 0.15923949740734758
  0.11073228872498811 0.2757681774436475 0.15926731921329096
  0.04539429938664857 0.05986830857690036 0.19148497049574825
  0.06715186582748678 0.16863448991420435 0.19155452501060674
  0.08890893077364759 0.11068374049807987 0.1916783320470549
  0.11068057947515729 0.21940585766237733 0.1917325845686445
  0.06713833859300773 0.11246027212205066 0.22401005273388014
  0.0888996913394055 0.22114062131513418 0.22403370126893202
  0.023663708321012746 0.06174500453162611 0.2238584238914886
  0.04539355162763416 0.17045512674402138 0.22388346351683766
  0.002004882442394281 0.06385000282114392 0.2562791743573327
  0.06716643427334174 0.16715403742925405 0.28886963783943154
  0.023695151181293825 0.00579023457554903 0.25637655067813464
  0.11067224144136978 0.2735800484751039 0.25650870425636574
  0.9803007162408038 0.955184767472674 0.25626943672525254
  0.023776925751399496 0.11670724726831881 0.2888334694917052
  0.045420908348217354 0.0585654878708054 0.2889197170901297
  0.08889067081104075 0.16501798071733387 0.2565156597078516
  0.023799777953394587 0.06121141847603508 0.3214795765856908
  0.023895457679871637 0.22762463761512794 0.3212236159710115
  0.11065651742973706 0.21749998017770658 0.2889990092370684
  0.045520197767492214 0.16954107572570173 0.3214086309805352
  0.04554590147457408 0.1137372340613186 0.35425366398701613
  0.06746779802275261 0.22267742878761357 0.3538780696067802
  0.088908620071968 0.16438829986826042 0.35363045553388395
  0.11083682129370023 0.27248625885847333 0.35384607452994526
  0.06747234696791027 0.16640050034993045 0.38591905242149693
  0.04635769959661233 0.22734230811869452 0.38601781983259603
  0.08854614284017044 0.9399532418284948 0.3860359040064592
  0.8547750880152453 0.5730592951957114 0.4917740685846484
  0.09549344799462382 0.7721049621919505 0.6556305946883032
  0.004715929415949591 0.6772910557605347 0.0017042664557718873
  0.3188931765037516 0.7971795811349471 0.8589273128973219
  0.4434290909355835 0.4434589053079351 0.8582901935412182
  0.23742774280134485 0.3616431203865136 0.925190508112718
  0.9437724397334577 0.7591744907855608 0.882575847949212
  0.8291476839833061 0.9238183289284737 0.02855407587583037
  0.21327725915751178 0.4233673225070018 0.8442596568039614
  0.15459971202231432 0.4973438012493152 0.06201508366589823
  0.08932747287957445 0.3369174826825873 0.062102861463649656
  0.13327819421954554 0.4456771254517606 0.030169966365023053
  0.13247461983868433 0.3862047054859663 0.06138825837799342
  0.08906160837300468 0.2795757887879777 0.09430312411739233
  0.11099881242424153 0.38881729259983533 0.09435751574801167
  0.13265033854286476 0.3306936686138396 0.09442456630033527
  0.1542902719234331 0.43930883096241646 0.09427363300309231
  0.06727456250583226 0.2812587606130659 0.12667240424224116
  0.08903954418426965 0.39016124259993523 0.1266384616389902
  0.11078272039183348 0.3321279039657276 0.12678216126668787
  0.13256716668710408 0.44101412753386715 0.12677075432625107
  0.08895646322813199 0.3337144985875455 0.15910177946792775
  0.1107155080628853 0.44243332768958193 0.15911012600971075
  0.13247369588712896 0.3844561438183632 0.1592561904909136
  0.15422870382624448 0.49311647240057327 0.15929931429012587
  0.08891256307892463 0.2773713950879596 0.19156982700387562
  0.11067716513927292 0.38605630512090555 0.19157678245536147
  0.13244845793933535 0.3280733949488805 0.19175484201339923
  0.1542041051347984 0.4366715738172484 0.19177988163874832
  0.11066877667819651 0.3297727634418046 0.22404065672041787
  0.13242960699167794 0.4383622701406265 0.22406708743606407
  0.06714135710626713 0.27914608948943337 0.22388068133624334
  0.08890057478121616 0.387792208983628 0.22387372588475746
  0.08893334074279435 0.33168016615629475 0.2563362090595167
  0.11069071583425918 0.44021880845515604 0.2563542932333799
  0.13245179234473012 0.38210588518012945 0.2565226151593375
  0.15418707527714418 0.4905927829969064 0.25658799640330443
  0.04549902295439059 0.2252607659550618 0.28877365260892685
  0.06726583303482626 0.33382420118160194 0.2886623653851533
  0.06716195631924725 0.22307471229981582 0.2563612486848657
  0.11076429166814888 0.38416975754732136 0.28879591005368155
  0.11071954985994736 0.3280479212787101 0.32125561104784645
  0.08919202935673405 0.3865350945236982 0.32109841784426624
  0.13245336196263846 0.32591091504447584 0.28898788051469104
  0.13259429781436985 0.4365285409752744 0.32126395758962945
  0.08923354709548129 0.3308414896974235 0.35403108953946894
  0.11117850203079702 0.43882189822537815 0.35372783185468587
  0.13238489279751275 0.379654125000779 0.35367218824279906
  0.1542669463103968 0.4890302643475259 0.35385859434261985
  0.026296474618594256 0.6072899093718536 0.5585199721331624
  0.5526821617831963 0.4763074769648985 0.6404371064626124
  0.9592300360148189 0.6219104423452403 0.3873977814073887
  0.10589032440124134 0.3008612889078713 0.5210273064438364
  0.5258451476453623 0.8726649695079629 0.8419198429241215
  0.9601246094704827 0.07618050977337158 0.02913165656721536
  0.09161375082008688 0.7278989967077618 0.028392987619418088
  0.6419939155715565 0.14864620946139728 0.9655613396268886
  0.8054609330201126 0.6441683397811317 0.02808319181023833
  0.7398279209620429 0.6502746661020596 0.027939631291570385
  0.17600491283417513 0.6059260429321203 0.06158885359884534
  0.6300144529402878 0.4131299760748485 0.8560519292530716
  0.19712605034690492 0.7123202744572372 0.06200492870672889
  0.13246322704660157 0.5543913246956296 0.06128893453077549
  0.9863528906175563 0.14255946368098182 0.8969416374480866
  0.19786082012082282 0.5460985698751644 0.06157772487646798
  0.1326373848899539 0.49765891595742323 0.09423482158380128
  0.1542196673415486 0.6060706037045133 0.09422411018851307
  0.17611121904000404 0.5482704966363713 0.09440216974655083
  0.1977194065669599 0.6565644826291618 0.09476983491209287
  0.11080277447780858 0.4989346926126057 0.12666071908374493
  0.13249164934753843 0.607602631432429 0.1266721260241817
  0.15427383371821074 0.5496179474809898 0.1268013583127888
  0.17591957300522404 0.6582102330764577 0.12693198169169306
  0.13245679281900744 0.551131331851556 0.15916020526040886
  0.15415820605705005 0.6597274304567612 0.1592714924841825
  0.1759450408585221 0.601712599413129 0.15939808170122494
  0.1976305864663812 0.7102444617285846 0.15958031453015423
  0.13242774399591886 0.49469779749141984 0.19161573298368223
  0.15415464582722532 0.6032976778582767 0.19172145584626715
  0.1759431347185036 0.5452488993382034 0.19185917378568698
  0.19765181257046274 0.653792138502337 0.19201080262807851
  0.15416049072161842 0.5469131990829545 0.22415194394419144
  0.17586528730027212 0.6554526691109255 0.22430357278658303
  0.11064535043151642 0.4963884685638196 0.2239140675033754
  0.13236043326707617 0.6049544235488413 0.22402118145625746
  0.13239750965017763 0.5487094185933944 0.2564447141026959
  0.15406470363248578 0.6571848259320914 0.2565907785838988
  0.21937572810140168 0.6494119234096294 0.25700671458275265
  0.19756249964061495 0.7075661809275525 0.25689403626868185
  0.089022713615233 0.44232409397455164 0.28864845448218157
  0.11067441877909677 0.5506903068375648 0.28874583080298344
  0.13247641518085568 0.4925887761930775 0.28887659329091747
  0.15412407466065844 0.6009775312765036 0.2890059646885543
  0.11084326390233774 0.4948258552232706 0.32122639815160586
  0.1323859674807263 0.6030149029047832 0.3213307299238936
  0.1542693338237909 0.5449964794818364 0.32137941808429454
  0.19755626193138337 0.6511591630881902 0.28929113819947405
  0.13284701790318043 0.5476928912606658 0.353950406302233
  0.1974598389971468 0.7055688543793986 0.35476280303578034
  0.4581818002681346 0.2836231599845405 0.3867996125796055
  0.17577217593642605 0.6532491858369708 0.3216673737758088
  0.41924657960879874 0.7607207065042618 0.5217228515924215
  0.8294487054749456 0.6427833435259527 0.38598999802665257
  0.6086352777878268 0.5632888899172471 0.5187069678281568
  0.043508600071571375 0.37594092063260653 0.4918144102032663
  0.1315458378919646 0.3235940905095819 0.0014147944758337813
  0.3833375082490306 0.35657704980444327 0.8838167004942877
  0.02974718558001456 0.18709810606673027 0.9815421849607777
  0.13228024865004823 0.1145962053832517 0.998441798025431
  0.6772709545069345 0.6452555280886947 0.927687515196138
  0.06849577846592929 0.843241116149007 0.0005877245218319495
  0.15530176739580548 0.7168054096767889 0.02718106975252358
  0.06735864587336604 0.5003367949411208 0.002081641431588166
  0.2839785564222378 0.9805458569180534 0.06254411530591199
  0.175734867371412 0.7715542222998049 0.06113535816196791
  0.1979988186919951 0.8797810727628845 0.06119058444676556
  0.24049753953120198 0.8154239757947651 0.027569601272523163
  0.17588598630404043 0.7148816125111733 0.09430479342574893
  0.21967797292123006 0.8228965264722183 0.0615181862117491
  0.21914830194034937 0.7650740369270279 0.09481685376413722
  0.21930006440314434 0.875123378486832 0.1272143730220186
  0.15417538357878033 0.7161572979471966 0.1267708934352808
  0.17595754031085759 0.8247570776257778 0.12692099207834542
  0.19758734731553262 0.7667044289656287 0.12710322490727471
  0.19762225600286565 0.8230408053805665 0.09427766716495412
  0.17585913018171506 0.7682706412135439 0.15943564113924852
  0.19761782688070456 0.8768250930949966 0.15962900269055516