lammps to VASP
1.0
 75.3209096809 0.0000000000 0.0000000000
 -13.8573871421 26.5262290941 0.0000000000
 -0.4858019447 0.0358605461 71.3192755584
  Li   C   O   F
  6276   1344   4032   3588
Direct configuration=     1
  0.345179395771061 0.32545757637875866 0.9525166859612764
  0.10189493592732399 0.8954312290009779 0.7776256778523276
  0.11996612889160162 0.996006564599767 0.7696951430064255
  0.6362873283711974 0.608210930889276 0.0294895031327014
  0.942019346736487 0.5978480180117436 0.8992197340469227
  0.2900410727244609 0.5865250037573523 0.8059938852431147
  0.2436050081939533 0.8841132662756055 0.09506139745422719
  0.81796193860045 0.5528957288469516 0.9916533706534298
  0.11373238714028278 0.9504573864346485 0.05994396278607992
  0.047906955749086225 0.7857698511512523 0.058251012331175016
  0.07126037956276204 0.8998876383089413 0.06621057158855344
  0.08779853804127666 0.8435939528834756 0.062284143595452375
  0.04393201377397459 0.7267840588740844 0.09926096338721188
  0.07064699017522386 0.8357863454388472 0.09592511907110762
  0.0911798189516182 0.7884549694270587 0.09656435719632805
  0.11075044873531412 0.8956554197137019 0.0903262119471381
  0.029795349183559167 0.739164344958472 0.13265964812358638
  0.04599325740682307 0.8487325028783244 0.13182144555447742
  0.06806744162122834 0.772219562550928 0.13181541632890506
  0.086899082171244 0.889991154676294 0.12522785642561346
  0.04807071673515007 0.7948368464488456 0.16384911243860245
  0.07090341826004083 0.8981671363539958 0.16488249365879865
  0.09163168639705035 0.837498505692532 0.1623726532461104
  0.1123840339341987 0.9478881573396367 0.15620461527101787
  0.04694371999218146 0.718445300110363 0.19674484759060193
  0.0727465051366561 0.8449902957407139 0.19502862152069667
  0.09235017388783587 0.7881945940299895 0.20271938948918553
  0.11184984475106828 0.8844365508009177 0.19055577743328014
  0.06597183629160167 0.766848953507769 0.22835621748113638
  0.0909222357632541 0.881981794816021 0.22723730538654124
  0.027524591953265704 0.7317756891949291 0.23006963926007773
  0.04079012348986424 0.8367133345246732 0.22449190453288562
  0.04963145550927194 0.7859968271826067 0.26402539639643047
  0.06075838350795517 0.8915606237940753 0.2637617930458241
  0.09082088547312867 0.8423357442261888 0.2651681449642187
  0.11276026307045542 0.94237567604539 0.2656659066103105
  0.003526560788745335 0.6729672524368613 0.29883786442225385
  0.022497768948301106 0.7895744674300528 0.29187480995889636
  0.040000060559716846 0.7277369152247312 0.3007167393680652
  0.06633211847219882 0.8307125648151948 0.2963756969559519
  0.028165932156091932 0.7346327761028489 0.3363775054104676
  0.050156129426971466 0.8451940823364559 0.32872179107902744
  0.06984471962351431 0.7783252241735917 0.3337036139763913
  0.09143562041623247 0.882690213806935 0.327858069462147
  0.045409521708963355 0.7879511285679176 0.3660805553000698
  0.06371805614532583 0.8750507816730677 0.36258500661357157
  0.08897948575133648 0.8259859434549093 0.3655168928163264
  0.10852665733833518 0.9258628378423447 0.3611281774578268
  0.053384988414209994 0.729417716096198 0.3987267085562824
  0.7561536054832713 0.16134454322395522 0.6084035439268977
  0.09267774150139278 0.2682549247321632 0.4012323425325248
  0.7548222526151362 0.4959984338611431 0.608800351098289
  0.22833512989333196 0.42439319686318094 0.9020731001026884
  0.24354417550825094 0.9367473089989757 0.06765870744231012
  0.39741860202767476 0.08141307171328152 0.028114699487650652
  0.8363718858305854 0.9817806572639086 0.998922639084617
  0.8889505966163115 0.9009539903600586 0.9561496449050056
  0.7520828727862442 0.10716511110591537 0.8860353600801587
  0.19022990285158478 0.19415382705860204 0.8932129428022543
  0.052353704388311904 0.04646451005642131 0.9813504056520703
  0.15175732177186646 0.16012293214671017 0.05723333514037661
  0.08847449230708246 0.002350336834849727 0.05734789042625183
  0.10858788485778163 0.11302635514502964 0.061544231424628025
  0.08531173856560695 0.8413826426872193 0.8195989028544634
  0.08786162853876799 0.9515967853337189 0.09273888367792729
  0.1134673965522053 0.06063006998670294 0.09461299132909999
  0.1309622985364715 0.011692863612278838 0.09066847565928178
  0.1591178642833014 0.12058607607091783 0.09303038972362444
  0.06869638135763659 0.9564150135055386 0.13151619848305718
  0.08922428072084129 0.0661187477972607 0.12768764024459614
  0.11531147230055415 0.0222294014569888 0.12567584190709608
  0.13728826371814803 0.11989708037724763 0.1316928688137827
  0.09329221354760783 0.01361114319434116 0.164489892923853
  0.11393882884653372 0.1245625186080472 0.16497503526060728
  0.13428398239642558 0.06094903117551856 0.1631887019166046
  0.16005244294459597 0.1652308832384669 0.16195341174700773
  0.09586909768072861 0.9578090872504269 0.19622465161679895
  0.11280362551143581 0.05649725630875274 0.1935507601827227
  0.134377853441906 0.9875579375580938 0.20110972647590836
  0.15492366387107037 0.1011749905452486 0.19796190986893342
  0.10649061423866839 0.9896717429710157 0.22979622089109772
  0.12792045204385674 0.11874423160061409 0.22875582894349172
  0.09343584536227983 0.0026743938453466427 0.2633846159111799
  0.09099314621284249 0.054601188469966165 0.22605249245429457
  0.07108448844518125 0.00694249409171646 0.2944687791005016
  0.11078958264344838 0.10260958515363768 0.25751523492374245
  0.13302082508816004 0.0421539614512837 0.2563921163927015
  0.1566366071237294 0.1542222978647826 0.2580550609342927
  0.04101933403076734 0.8852266361660727 0.2949048463453876
  0.11355848492540517 0.1706239978331514 0.3309694302865913
  0.09043449774712778 0.9355549280596396 0.2971412683890959
  0.15389197927475248 0.09009500966684128 0.29333444340560505
  0.07126300779630756 0.9390533642006456 0.333383924806507
  0.08764821451569492 0.037829306787602414 0.327968838955221
  0.11105453401368111 0.9873280007063423 0.3265779106371278
  0.13600022158804526 0.16676687066269485 0.29457954859357555
  0.08967171059859136 0.0002745794946090898 0.3618138265984998
  0.10695753470041316 0.10788272785871976 0.36357632346930935
  0.1249315293669643 0.030324532204902513 0.3616651991774132
  0.15313524118170435 0.15494633640896338 0.3630168674220118
  0.609541031789869 0.7173729906283994 0.5186676352276599
  0.3706439756290324 0.001046639718947992 0.6542537011866215
  0.20127289982494329 0.9890426522813671 0.7258121958578757
  0.15840727230741805 0.10327350790047525 0.40053126979155046
  0.43496686169390153 0.7925809309978394 0.8454039883042479
  0.4596324714941532 0.5667149538804628 0.024798905851938266
  0.11677183389488455 0.9003808430816018 0.9199939215074753
  0.17459817166889208 0.37773283822377063 0.9250332323695991
  0.6853472483225652 0.0972677195758208 0.9588305470664916
  0.13803867532194217 0.09155186227607617 0.8403198087867018
  0.300868887340538 0.348190574314281 0.7369396224026209
  0.39264005183706385 0.8072860519358518 0.99120748839017
  0.10840026733803554 0.608736380282287 0.061887476638609086
  0.0532035710349692 0.4594773999472566 0.06684854778284013
  0.07055487438909079 0.562478351037785 0.06331191623372082
  0.08951065700420144 0.5011562342133984 0.06455337584343823
  0.04317517067928706 0.39564886360785617 0.09558145321348198
  0.06938213404010915 0.5121971038911426 0.10156791334866215
  0.08955222059013274 0.44113776025412477 0.09700659388133469
  0.10768871506622657 0.5629664897142773 0.09821159770852145
  0.020646448370710842 0.3900536491722117 0.1323890340455703
  0.042666970631218 0.5053598440453622 0.12852570259915688
  0.06151068463141502 0.4482391488615472 0.13122076643001057
  0.08794920980268392 0.5738500019561316 0.12892671620699422
  0.04831281758070357 0.45538079800674897 0.16911697301428386
  0.06601713984520494 0.5683176101427403 0.16388136178468726
  0.0857288832385186 0.4949917858944573 0.16269935314340447
  0.11126159145414666 0.608185239211694 0.16282554623677986
  0.050163516099584526 0.40264755853417045 0.2001815061668583
  0.07257238575850904 0.5129132102711974 0.1965022764222248
  0.0902194343117663 0.44384011220540287 0.197863759685197
  0.10876537521905673 0.5537960559107344 0.19461358645803983
  0.07262737088524356 0.4495869828233642 0.23292160317036145
  0.07235825795190663 0.5591764181024897 0.2609617085183724
  0.03416592598513152 0.4019443764664247 0.23511596084961126
  0.047655767634966574 0.500398398686448 0.22914983182391935
  0.05114214607691487 0.43847282803590304 0.2668479152515933
  0.06667450949258345 0.4944877631463172 0.29570967785202623
  0.09499613793870902 0.5036767483904309 0.26645391237116567
  0.10882061079272382 0.6049857257474408 0.26798365309197175
  0.007394257431254497 0.3513538520703002 0.2957910022899793
  0.032314537728688086 0.4532411804640736 0.29895284035177366
  0.029737119765893178 0.39391380551548494 0.33050672227754824
  0.07280488523362158 0.44103427993286515 0.3325005731528793
  0.05104349422287798 0.34635593487951294 0.3336012573562091
  0.05656840970487976 0.51990322238134 0.3298336924462128
  0.05115425012683752 0.3838924380212572 0.2978549604394078
  0.09405237711825126 0.5528271208274843 0.32573802549344055
  0.045317575404953486 0.43917978784450296 0.3657594639847035
  0.0711798832443477 0.553129549477372 0.36136794433524005
  0.09357187487826346 0.4952375827700073 0.3657061824563895
  0.11191144586691221 0.6113304731914381 0.35994476667106207
  0.8950632072022231 0.06256127838206185 0.42679766110489625
  0.9708566302732095 0.734360695291782 0.6854318081232338
  0.9621836803993319 0.43510961833584105 0.5655960423630024
  0.15535568904011793 0.6609078916899572 0.3598900829972661
  0.7689780414995595 0.40754338351886266 0.02539958497640511
  0.4563325852959506 0.6187624644392307 0.9945502032191358
  0.7747069081911465 0.32686586855312866 0.9364354794288062
  0.8992065688870634 0.8964345585035762 0.029880561507616907
  0.2527198105066124 0.3708323303714843 0.9611300656568875
  0.06939277765764776 0.44313288972050385 0.029432015167941503
  0.8743177825198042 0.4323006873494689 0.8893598470178591
  0.05558805375330763 0.003243326674144387 0.8564781333206791
  0.1491657751645042 0.8069776267218784 0.06487909423889493
  0.08795275466552967 0.6777967325316682 0.06158839900730941
  0.10730323824306826 0.7699127331253098 0.0590749130163681
  0.13568353933037258 0.7103713844220286 0.05370567732234177
  0.0897245567029825 0.6103763584244355 0.09249392886223085
  0.11332938051496531 0.7266416515762811 0.09305717070232966
  0.12751054683073224 0.6666222030213624 0.09834550260204755
  0.15193935898039318 0.7627105495963445 0.09663067867762423
  0.07030983466428674 0.6253385525467073 0.12900790043039906
  0.09159639434736046 0.7228592658734675 0.12742445753763437
  0.11071901000004644 0.6671688608701559 0.13178695277562147
  0.13005055170925378 0.77710218167229 0.12575099690492852
  0.08891949097874792 0.6547732430371397 0.16550083981633806
  0.11485932584028412 0.7765632594837377 0.16187909803646444
  0.1406251516105296 0.7173318600963501 0.16147948657410907
  0.15481762148499126 0.8313030348945913 0.16076859881476105
  0.08825209289685843 0.6072718798473273 0.19706874319693207
  0.11416116787862221 0.7214786413082948 0.19498515501075625
  0.13367734030987274 0.6559664724929354 0.19472856238755962
  0.15712057857943043 0.7726059052197826 0.1973968452397081
  0.09439044970233802 0.5732048755530926 0.23246029730680035
  0.13552534056625903 0.7758733737565195 0.23438404090803402
  0.0677235943421628 0.6052733485662334 0.23090812225828306
  0.08743369320874221 0.7194606992889104 0.23202843649836014
  0.09020713919152558 0.6658757667145374 0.2628756371012325
  0.11113593677837542 0.7691546885675198 0.26565468944645493
  0.13918317416013193 0.7323356526055994 0.2648232171756593
  0.1577906154424604 0.8276722481474686 0.261466480891874
  0.050127334433682495 0.5688383108611615 0.2973922524303647
  0.06347207133514914 0.6764752649735759 0.30011101251986333
  0.09790046389462634 0.6186229533947354 0.3002133691400456
  0.11143731275561276 0.7172297043343444 0.2983933843044761
  0.0739674302938635 0.610066323556291 0.3301940438350736
  0.09097468437855837 0.7182683117608719 0.3360297733309443
  0.10988056388569797 0.6607221741850111 0.3299514726666965
  0.13899324257314633 0.7711539819164719 0.3260633232452526
  0.09073929578450178 0.6548495769665795 0.3655855979449419
  0.1155394587529374 0.7725297270049005 0.3625008778846547
  0.13589656593681856 0.7179013400914042 0.3592969754584018
  0.15794177522889777 0.827461874890585 0.3613090542249982
  0.17391151236737562 0.8594313334037449 0.5055014891521612
  0.8687015908210247 0.034100910457375094 0.76645338265216
  0.7730765797145617 0.5184945583704927 0.4599640103349118
  0.20098219629673839 0.08037235206519554 0.43291522184263864
  0.11023447731848092 0.16143635163279982 0.025720536077223178
  0.0011357309962408432 0.11839212523291372 0.025748719201410347
  0.2410353378999395 0.37712634511275656 0.001677947498248062
  0.09205019584184351 0.5680967320288253 0.02609939578644573
  0.9139716142653522 0.34918065638438556 0.02911036299438246
  0.7604287360275013 0.5276089348034787 0.9627439351066105
  0.9968555775483136 0.6818878094574861 0.7665178813443296
  0.22631275971589937 0.39279131253796806 0.02865704936006843
  0.19370017264568262 0.04089200427133909 0.059935690127736425
  0.1294242847543673 0.8729815095457347 0.05556197772589371
  0.1303549605994959 0.05918747602796823 0.06105460222233153
  0.16631636943847186 0.9146862200039011 0.0648004338773576
  0.13120571729702893 0.8327106470390677 0.0955536907329394
  0.1488638665727925 0.9397134364466057 0.09888588947079058
  0.16950080754172966 0.8710331640360873 0.09689596460280893
  0.20059580520840037 0.9965329167847157 0.09033742911099368
  0.11069841419848883 0.8282716003506917 0.12765497025486672
  0.13297075969460684 0.9571051437023681 0.13133349892675925
  0.150803435781584 0.8886256851853683 0.12859524901506156
  0.17320491214217268 0.988265487864977 0.12111536372705778
  0.12932160827729197 0.8776287833183819 0.15944637562528338
  0.15707549026957507 0.0005701702302392219 0.16193378171026043
  0.1678286157558714 0.9317768179400061 0.16381966738348153
  0.1975690461115735 0.05546414941450865 0.16383649312926488
  0.13671486135848743 0.8321267909951904 0.19838255351351805
  0.15522216145305942 0.938131025080126 0.20137753626296057
  0.17938225965107144 0.8785819909210125 0.1905389516874968
  0.19853973725485294 0.9950645986521223 0.19209112673601403
  0.15603233813625458 0.8827839065889698 0.23345582059898393
  0.18096886471787704 0.9887241513899369 0.22522382447446285
  0.11201662788334246 0.8307031688268268 0.23361145874748027
  0.13200511841814944 0.9320664898555796 0.23398302730019666
  0.13640523749715855 0.888593854391649 0.26926100762602706
  0.1556188322973196 0.9953517422971124 0.2613360813620528
  0.179866717003737 0.9406936245598663 0.2606041614204755
  0.19628652979902556 0.04081614797765427 0.26384171533829515
  0.08757866218235778 0.7679399130220805 0.3025591585313458
  0.11385396116106734 0.8738670937160428 0.3039907490684155
  0.13376348767280075 0.8177655986128224 0.29732915588367703
  0.1585275781350462 0.9411792595984407 0.29735579664783407
  0.11537080328788286 0.8289059916141286 0.3388060213852028
  0.1354137465844358 0.9473335344826357 0.32943267883837546
  0.15848204973602506 0.8813668985236998 0.3279295788817264
  0.1773639853894596 0.9804356081483029 0.3329688897438502
  0.13662125285899313 0.8873314554281684 0.3664899817807988
  0.15037506781203636 0.9928626403736409 0.3680407546838341
  0.17882857741226427 0.9447267029646225 0.3670620571374339
  0.19671345312653077 0.029990341457139608 0.36773929340521516
  0.6868790319777957 0.6291400368437124 0.46812589918533554
  0.18164530198409906 0.053423466137627475 0.3986804377553781
  0.4701281151610458 0.3346360634227111 0.522220671878918
  0.9686228806226259 0.4538386229485942 0.6573440298288366
  0.046830127414482316 0.37257150156471175 0.9942122861579862
  0.6414399688468011 0.6806839953277416 0.8399314144882021
  0.5161034050314071 0.5354042720991077 0.8517332730097645
  0.780574852174989 0.4143029180441526 0.9928984758414002
  0.25887139730023484 0.594129772172329 0.027259811387306508
  0.10749156905565832 0.9507286973462532 0.8101596594699844
  0.6110339395421079 0.860649389842688 0.8900342789946765
  0.5406164695904349 0.2180229165283761 0.9973124298185749
  0.23945154359784512 0.24589838831687083 0.06422148800786097
  0.17452818079994015 0.09416835728446865 0.058241758170994154
  0.19288665235537877 0.21009904840821322 0.058407071123315904
  0.22077402961658646 0.16147721842266968 0.0571187798545014
  0.17031562599985728 0.04480550878191113 0.09003793083604943
  0.20300127292819928 0.1561329502941678 0.0945772366193103
  0.2221567678613245 0.10570345344108006 0.09525727717805543
  0.2465323100579131 0.20737040473755064 0.09885896827753718
  0.1578471898567696 0.06379333370494869 0.12697563076886256
  0.18018632692833964 0.16593400366681407 0.1259491200615279
  0.19946737883125823 0.10376833540985803 0.12290281878744605
  0.2239057339927774 0.21030748404434382 0.125918272860925
  0.17673251871706064 0.09554053738615531 0.16284798056449104
  0.19845906440374234 0.20357396175066278 0.16202912760303295
  0.227834315655097 0.16160174199604802 0.16634352925098925
  0.24127334499446543 0.2662521878123121 0.15514178899570075
  0.17956389991296512 0.05194858364724198 0.19296886980771394
  0.20082417656775764 0.15583042761468704 0.1964938635493331
  0.22144365280833384 0.09976103235628589 0.19536794072732827
  0.2453752027845586 0.20669277651253284 0.1993850875331114
  0.20121481500809046 0.09036661957485158 0.2279481931458893
  0.22248212906893589 0.21035781138410345 0.23146617616009865
  0.1558398732133481 0.04120253043261454 0.2234276761120865
  0.1784716188880225 0.15429381918694351 0.22773787132359696
  0.1743820308463557 0.09760054199955191 0.2631210125605735
  0.20521940270594916 0.2081304936794916 0.26053265200089615
  0.221965938670719 0.15105551058655498 0.2631560661976222
  0.24636242591128024 0.25631586385589267 0.2634280824211203
  0.133381490603749 0.9964528366634754 0.29179068122997953
  0.13790819535442309 0.09863217123136885 0.32990099542934637
  0.17731702710632338 0.04575524724567823 0.2985406095800807
  0.1997669378762933 0.13950453676390107 0.2936569368664533
  0.1574461621752703 0.039458145260781154 0.33223696980227296
  0.17901524279514794 0.14146563426104716 0.3321247981637171
  0.19956443464451196 0.0939860667063313 0.33753147114211146
  0.2216529731127719 0.20850917858274762 0.3273168413061148
  0.177306364205581 0.09372205887986601 0.36606232740880446
  0.1961087652277798 0.19994303051971402 0.3651747693187309
  0.21955014550585472 0.14279461041839153 0.36857917854890243
  0.24316724794737557 0.25509688818378917 0.36311501760574816
  0.16978480341144248 0.6868832034280404 0.4901984733621726
  0.31731347902391066 0.4509254982804485 0.5088301825263075
  0.08809333164011843 0.28362388347396783 0.5623977485186773
  0.5030017891942028 0.3573535235089392 0.6028510478183806
  0.7374026863379713 0.3268680396838986 0.02491584478513279
  0.24353664994126648 0.9914401528175952 0.028760667911184444
  0.6234853478508454 0.24896446951030143 0.844143459515976
  0.12853064838491612 0.7594435732033784 0.993453725452252
  0.7713709801263582 0.8941902493833954 0.9566109507685667
  0.2591123011606268 0.6946483526449 0.9564454976016967
  0.20782172442296062 0.9265661125523866 0.84480106574701
  0.023298359282008737 0.8424675180381089 0.9624396695370278
  0.11594014954766951 0.28472019665907505 0.060702803920910584
  0.05196445057451681 0.1350388345061955 0.05853060014027559
  0.07365722823622717 0.23070904955663935 0.06215458535292032
  0.0945937051588397 0.17540516482724425 0.05583890145857859
  0.0485580911698265 0.06936574383940192 0.09699762015025021
  0.07150767754632419 0.17226897698375665 0.09268265764410115
  0.09607641780894438 0.1258100976407964 0.09488220326163416
  0.11738789116770858 0.2346787503637479 0.09168026383905599
  0.024067310593831267 0.06497718648081623 0.1235414960544737
  0.05155487175415856 0.1790937714875865 0.1309960025092542
  0.0729934901892782 0.12666541349088617 0.13201760570740204
  0.09085043222104021 0.22219434281846184 0.12330986162085578
  0.04771080381778057 0.11524351553176149 0.1612944033704918
  0.06795485919984734 0.22791316512922927 0.16210484345905818
  0.09475561283668857 0.18695878661557833 0.15751001271471216
  0.1199177697945622 0.2794173990988824 0.16006612392830474
  0.044203012086973144 0.05311323767519604 0.19481269111647656
  0.06785068309799346 0.16423388266060698 0.18890965863747233
  0.09062379912513614 0.1198119924702854 0.19630597605475197
  0.11721301535086048 0.2321277796806616 0.19256084547246688
  0.07348542872357723 0.12420403041807977 0.22714195949376875
  0.0942666712884335 0.22845165596948905 0.22640583311574564
  0.02319407142500203 0.05721919210602352 0.2267283265765939
  0.051274263015719 0.1715889846951574 0.23260331614595908
  0.006441841731302332 0.08161459014196344 0.26248023207532295
  0.07170812402774222 0.17521016806049822 0.29935245181412906
  0.030862836339062328 0.016912762881772323 0.2664258694615267
  0.11464549207778679 0.26522153102282037 0.2588612945864132
  0.9853349420701633 0.9616330594839846 0.25937027339636065
  0.024918282236563727 0.10817428537791958 0.30100277704638273
  0.049563661720503034 0.06559922047275352 0.30312001672412536
  0.08902282725819385 0.1616757350510732 0.26386695395697024
  0.027418561724419498 0.07457226684362359 0.3295813062594621
  0.02706266853791988 0.22825938556842632 0.33321426520319125
  0.11823368583556923 0.22558981969414918 0.2914836113694327
  0.04886129236419482 0.16864090614640495 0.33442571889959494
  0.05826259615762423 0.11794317841748925 0.3664815689079071
  0.06810833980293764 0.23133928821136163 0.3650541848072833
  0.0948739713198613 0.175956946040763 0.3637908517280475
  0.11334519517937952 0.27166991974984533 0.36395069631298965
  0.06940268643264767 0.16964111427561596 0.3996296902466574
  0.051782799676241206 0.2267040298858288 0.3995189207535835
  0.09102941878688434 0.9373090720075328 0.3910934285525534
  0.8864910295692882 0.5195623946422747 0.5066540527383231
  0.09011668578785378 0.7491755342458 0.6413217134066083
  0.005226949728894375 0.6776325405179088 0.9989957932208466
  0.31288927083675894 0.8051385483092641 0.8591730569369845
  0.4401079693292704 0.4419679405613204 0.8548993175080049
  0.21204995160994944 0.3075979877588012 0.9641601020433788
  0.9365640139642726 0.7367683128462797 0.9011280540478549
  0.8310162053763167 0.9310203904874071 0.028996508781248223
  0.2079981189749332 0.415900542981745 0.8484788933461616
  0.15951573278182635 0.5095484442836685 0.06138312490875211
  0.09077705658937471 0.337916780410366 0.061685287260112076
  0.13446228031580992 0.45238940145252887 0.031095380353177295
  0.1421769446196843 0.40986364487248556 0.06310720299335629
  0.09124211211354549 0.2873899230567327 0.09980499583420799
  0.11606505975536263 0.3926166026913588 0.0937534761486654
  0.13756490037885657 0.3448077840999883 0.0903423366201805
  0.15922286920338544 0.44786194431045717 0.09513136451377643
  0.07062928331672652 0.2949167538844339 0.12634003822189518
  0.08882964015524623 0.39475036983075845 0.1327713991184977
  0.11507235276668035 0.3385166668760015 0.12267917658307521
  0.13533503822007834 0.44118658115651277 0.1278194419198993
  0.08738064988586978 0.3258878525090723 0.15711320554332067
  0.11000173772349639 0.4382424662185071 0.16396689265908615
  0.1367977971956617 0.393154691627449 0.16141919431838525
  0.15818983665108816 0.49065234131755187 0.1629531414756372
  0.08985308959616607 0.2751135937829388 0.19279640591343425
  0.11619955962777914 0.3832433119741972 0.1924150223423442
  0.1386628557309832 0.3355118340420702 0.19648965711288727
  0.1576478187797472 0.4398690843871516 0.19609004565053184
  0.11235296428197589 0.3273136770168106 0.2270578307648518
  0.13828864346107775 0.4481981553551598 0.2284697912651742
  0.06746981081876552 0.2673564725386355 0.2270171685458753
  0.09326619330434764 0.3933267766555626 0.2265390369365308
  0.0964991662820408 0.3352271130741427 0.25484274563514814
  0.11395596723891842 0.4603221082751803 0.25906740997225974
  0.13698969407719194 0.3754626331265189 0.2599563702078152
  0.16519592774112235 0.4886138385041938 0.2681883663323363
  0.050139481736450796 0.22377688433500997 0.30013765328402037
  0.06952866366211774 0.32799196159522814 0.3047941784295721
  0.07141698442499836 0.22938674952422666 0.2642048710181199
  0.11149901128729436 0.38921554750183585 0.2950100072565338
  0.10953079692617142 0.33038119689172946 0.3341466919486871
  0.09702205665328253 0.389031152852389 0.3338073727420555
  0.13760106574149503 0.3246438791432845 0.2928591160872244
  0.1384236868850611 0.44397740433449934 0.33054878664200665
  0.08873677048680505 0.3286369306901126 0.37399005796374263
  0.12348604076793225 0.44933797375906004 0.3669204404437571
  0.13715104462503813 0.38436639071187645 0.3711338876170131
  0.15965150003453366 0.48769999670508835 0.3641371816620888
  0.024787929680227663 0.6103666459344486 0.5737368990311968
  0.5552062705812475 0.4694636023393545 0.6469765661353075
  0.9612323613797142 0.627409970763926 0.39261475640046783
  0.11875479565688225 0.3170569924488162 0.5190546273806778
  0.5126892406562447 0.8553881218392685 0.8387690358836665
  0.9623573060080595 0.08632295406527447 0.02391331076553944
  0.08527430264851575 0.7146065562693935 0.030194081237380647
  0.6384218358041113 0.10517380107511035 0.9664007305235329
  0.8099465932114908 0.6437899860420703 0.027309727766463884
  0.743710073271292 0.6546500910790776 0.03351057594583401
  0.1809038529700269 0.6228973915627178 0.058032838494183794
  0.6230889532910695 0.4099369720084391 0.8482293114503747
  0.20255044864503696 0.7233608596500891 0.057559614394026085
  0.12882183661138707 0.5478922557848447 0.0664938049759071
  0.9399305482306372 0.08828824363150288 0.8791227828541514
  0.19881970186927844 0.5513592748042399 0.05626136789228975
  0.13209364456176725 0.4955470107785425 0.10056916512187006
  0.14966004818251846 0.6085233908479154 0.09116217108347593
  0.17839754980090797 0.5658815185801934 0.09752216277504724
  0.20084232435831068 0.6683249314797297 0.09647812524918821
  0.10726415633567124 0.5001004370903169 0.1316554315294147
  0.13008333341922013 0.6007105901743316 0.12864460453602614
  0.1559996540949472 0.5497876440458875 0.131258484143475
  0.18235520778113623 0.6609935233928603 0.12644449806030036
  0.1323015917903349 0.5531420182664836 0.16252128066719698
  0.1601546557961578 0.6651324811343008 0.1601600676755953
  0.17541024730296714 0.5988468641298175 0.16594531993411582
  0.19889021881029836 0.7237741892068577 0.16173888348826956
  0.13467391936150644 0.49243256166420407 0.20136491695362305
  0.16047886509304524 0.6043001172338711 0.19510714166768578
  0.18142969478574733 0.5484745769887612 0.19346382716284186
  0.2052432186262761 0.6676513107368537 0.19599189546679543
  0.15907281502821974 0.5582536165267398 0.2241091188163136
  0.18275640415109923 0.6636936630517288 0.22893810785614507
  0.11506045452380467 0.5247646764062426 0.22509342494464163
  0.13636905945608668 0.6122717284323344 0.22977518870886848
  0.137832622707275 0.5393522172509498 0.26267092386086793
  0.15347191224052473 0.6520875507063572 0.26425254396450615
  0.2203866075941415 0.6445702090316724 0.26165156409549123
  0.19932979808502266 0.7052850840829077 0.2662057326208608
  0.09849962543787809 0.45167428844794505 0.2951530260956926
  0.11439627457010237 0.5547223625046427 0.29579941516287095
  0.13763199079845734 0.49522997277506375 0.2988322558403261
  0.15821384800861474 0.6115753444301045 0.2959326189836561
  0.11054812440921565 0.4943013789500646 0.33040156136640203
  0.13760234739443056 0.596280698371731 0.3324430851881194
  0.16068818483087416 0.5358655331211001 0.32927844283536106
  0.2009981923732827 0.6566695312666809 0.2965257265225204
  0.13356169571397844 0.5563280340593159 0.3629369451295407
  0.2033644528214468 0.7059125077230689 0.36260183235935495
  0.38172256084137174 0.295392471906376 0.430880708748331
  0.1797204870657298 0.6589265865478593 0.3307927599558657
  0.4191985188983331 0.7845838196139805 0.5395862436728532
  0.8326745010024849 0.6382736803817435 0.39336069779686456
  0.615328511603061 0.5873495164895871 0.527938621154305
  0.04486116885410143 0.3949655190089169 0.5062432241121121
  0.19168908828461748 0.19999506619521587 0.9641530913159689
  0.39233584860325577 0.37478893928361934 0.8433428344457833
  0.07704317676854973 0.36073337260578237 0.9903339517549161
  0.06741562039728705 0.9926249500852691 0.0028769641642268917
  0.6712774151440224 0.6246516349043341 0.91598238328362
  0.9974145227228437 0.73065537260301 0.9583846648032318
  0.15698494633323723 0.7330307226410265 0.023957197919124436
  0.08656483915545271 0.5183765629711358 0.9655328024702065
  0.2886302312312679 0.9855120914887203 0.06080459968290007
  0.1723120571105797 0.7608165705797769 0.058709373689224055
  0.18997273336927864 0.8764113195828199 0.06448747500578664
  0.23866233353857907 0.8309029903515274 0.024453697634282484
  0.1772061088473112 0.7137306949872572 0.09247135431997147
  0.21923559835549286 0.836544345046099 0.06505912971877714
  0.22032422801350532 0.7609253338025139 0.09537702040221387
  0.22129491304223964 0.8750729722557508 0.12587270313276167
  0.1605189768182739 0.724217845630692 0.1263648561969257
  0.17813606069372925 0.8284763325096576 0.12958544415441375
  0.19824297330857196 0.7660554261997001 0.12934175126965106
  0.19358859438131343 0.8282904952156083 0.09694686248380367
  0.17746302371848396 0.7741491755118342 0.16010959043824516
  0.20368231039944396 0.8951592579860232 0.16175010065212517
  0.22380610559547914 0.823116806546471 0.15936785547829424